
     Program PWSCF v.6.5 starts on 16Jan2020 at 11:35: 4 

     This program is part of the open-source Quantum ESPRESSO suite
     for quantum simulation of materials; please cite
         "P. Giannozzi et al., J. Phys.:Condens. Matter 21 395502 (2009);
         "P. Giannozzi et al., J. Phys.:Condens. Matter 29 465901 (2017);
          URL http://www.quantum-espresso.org", 
     in publications or presentations arising from this work. More details at
     http://www.quantum-espresso.org/quote

     Parallel version (MPI & OpenMP), running on       8 processor cores
     Number of MPI processes:                 8
     Threads/MPI process:                     1

     MPI processes distributed on     1 nodes
     R & G space division:  proc/nbgrp/npool/nimage =       8
     Waiting for input...
     Reading input from standard input

     Current dimensions of program PWSCF are:
     Max number of different atomic species (ntypx) = 10
     Max number of k-points (npk) =  40000
     Max angular momentum in pseudopotentials (lmaxx) =  3

     IMPORTANT: XC functional enforced from input :
     Exchange-correlation= REVPBE
                           (   1   4   4   4   0   0   0)
     Any further DFT definition will be discarded
     Please, verify this is what you really want


     --------------------------------------------
     Parameters for DFT-D3 Dispersion Correction:
     --------------------------------------------
       Reference C6 values for interpolation: 

         atom   Coordination number   C6
         H          0.912             6.05
         H          0.000            15.18
         C          0.000            98.23
         C          0.987            86.49
         C          1.998            58.72
         C          2.999            51.56
         C          3.984            36.41
         N          0.000            50.54
         N          0.994            44.25
         N          2.014            39.35
         N          2.990            31.16
         O          0.000            31.01
         O          0.993            25.63
         O          1.989            20.74

       Values used:

         atom   Coordination number  R0_AB[au]  C6      C8
         O          1.074            2.345     25.50    514.59
         O          1.076            2.345     25.50    514.53
         O          1.076            2.345     25.50    514.53
         O          1.076            2.345     25.50    514.53
         O          1.076            2.345     25.50    514.53
         O          1.076            2.345     25.50    514.53
         O          1.076            2.345     25.50    514.53
         O          1.076            2.345     25.50    514.53
         N          3.218            2.478     31.19    688.12
         N          3.219            2.478     31.19    688.11
         N          3.219            2.478     31.19    688.11
         N          3.219            2.478     31.19    688.11
         N          3.219            2.478     31.19    688.11
         N          3.219            2.478     31.19    688.11
         N          3.219            2.478     31.19    688.11
         N          3.219            2.478     31.19    688.11
         N          3.089            2.478     31.24    689.21
         N          3.090            2.478     31.24    689.19
         N          3.090            2.478     31.24    689.19
         N          3.090            2.478     31.24    689.19
         N          3.090            2.478     31.24    689.19
         N          3.090            2.478     31.24    689.19
         N          3.090            2.478     31.24    689.19
         N          3.090            2.478     31.24    689.19
         H          1.011            2.062      6.17     74.60
         H          1.011            2.062      6.17     74.60
         H          1.011            2.062      6.17     74.60
         H          1.011            2.062      6.17     74.60
         H          1.011            2.062      6.17     74.60
         H          1.011            2.062      6.17     74.60
         H          1.011            2.062      6.17     74.60
         H          1.011            2.062      6.17     74.60
         H          1.012            2.062      6.17     74.59
         H          1.012            2.062      6.17     74.59
         H          1.012            2.062      6.17     74.59
         H          1.012            2.062      6.17     74.59
         H          1.012            2.062      6.17     74.59
         H          1.012            2.062      6.17     74.59
         H          1.012            2.062      6.17     74.59
         H          1.012            2.062      6.17     74.59
         H          1.005            2.062      6.18     74.66
         H          1.005            2.062      6.18     74.66
         H          1.005            2.062      6.18     74.66
         H          1.005            2.062      6.18     74.66
         H          1.005            2.062      6.18     74.66
         H          1.005            2.062      6.18     74.66
         H          1.005            2.062      6.18     74.66
         H          1.005            2.062      6.18     74.66
         H          1.006            2.062      6.18     74.65
         H          1.006            2.062      6.18     74.65
         H          1.006            2.062      6.18     74.65
         H          1.006            2.062      6.18     74.65
         H          1.006            2.062      6.18     74.65
         H          1.006            2.062      6.18     74.65
         H          1.006            2.062      6.18     74.65
         H          1.006            2.062      6.18     74.65
         H          1.006            2.062      6.18     74.66
         H          1.006            2.062      6.18     74.66
         H          1.006            2.062      6.18     74.66
         H          1.006            2.062      6.18     74.66
         H          1.006            2.062      6.18     74.66
         H          1.006            2.062      6.18     74.66
         H          1.006            2.062      6.18     74.66
         H          1.006            2.062      6.18     74.66
         H          1.007            2.062      6.17     74.64
         H          1.007            2.062      6.17     74.64
         H          1.007            2.062      6.17     74.64
         H          1.007            2.062      6.17     74.64
         H          1.007            2.062      6.17     74.64
         H          1.007            2.062      6.17     74.64
         H          1.007            2.062      6.17     74.64
         H          1.007            2.062      6.17     74.64
         H          1.005            2.062      6.18     74.66
         H          1.005            2.062      6.18     74.66
         H          1.005            2.062      6.18     74.66
         H          1.005            2.062      6.18     74.66
         H          1.005            2.062      6.18     74.66
         H          1.005            2.062      6.18     74.66
         H          1.005            2.062      6.18     74.66
         H          1.005            2.062      6.18     74.66
         H          1.006            2.062      6.18     74.65
         H          1.006            2.062      6.18     74.65
         H          1.006            2.062      6.18     74.65
         H          1.006            2.062      6.18     74.65
         H          1.006            2.062      6.18     74.65
         H          1.006            2.062      6.18     74.65
         H          1.006            2.062      6.18     74.65
         H          1.006            2.062      6.18     74.65
         H          1.006            2.062      6.18     74.66
         H          1.006            2.062      6.18     74.66
         H          1.006            2.062      6.18     74.66
         H          1.006            2.062      6.18     74.66
         H          1.006            2.062      6.18     74.66
         H          1.006            2.062      6.18     74.66
         H          1.006            2.062      6.18     74.66
         H          1.006            2.062      6.18     74.66
         H          1.006            2.062      6.18     74.66
         H          1.006            2.062      6.18     74.66
         H          1.006            2.062      6.18     74.66
         H          1.006            2.062      6.18     74.66
         H          1.006            2.062      6.18     74.66
         H          1.006            2.062      6.18     74.66
         H          1.006            2.062      6.18     74.66
         H          1.006            2.062      6.18     74.66
         H          1.007            2.062      6.17     74.64
         H          1.007            2.062      6.17     74.64
         H          1.007            2.062      6.17     74.64
         H          1.007            2.062      6.17     74.64
         H          1.007            2.062      6.17     74.64
         H          1.007            2.062      6.17     74.64
         H          1.007            2.062      6.17     74.64
         H          1.007            2.062      6.17     74.64
         H          1.007            2.062      6.17     74.64
         H          1.007            2.062      6.17     74.64
         H          1.007            2.062      6.17     74.64
         H          1.007            2.062      6.17     74.64
         H          1.007            2.062      6.17     74.64
         H          1.007            2.062      6.17     74.64
         H          1.007            2.062      6.17     74.64
         H          1.007            2.062      6.17     74.64
         C          3.137            2.750     50.63   1464.43
         C          3.137            2.750     50.63   1464.43
         C          3.137            2.750     50.63   1464.43
         C          3.137            2.750     50.63   1464.43
         C          3.137            2.750     50.63   1464.43
         C          3.137            2.750     50.63   1464.43
         C          3.137            2.750     50.63   1464.43
         C          3.137            2.750     50.63   1464.43
         C          3.167            2.750     50.39   1457.34
         C          3.167            2.750     50.39   1457.34
         C          3.167            2.750     50.39   1457.34
         C          3.167            2.750     50.39   1457.34
         C          3.167            2.750     50.39   1457.34
         C          3.167            2.750     50.39   1457.34
         C          3.167            2.750     50.39   1457.34
         C          3.167            2.750     50.39   1457.34
         C          3.274            2.750     49.03   1418.02
         C          3.274            2.750     49.03   1417.99
         C          3.274            2.750     49.03   1417.99
         C          3.274            2.750     49.03   1417.99
         C          3.274            2.750     49.03   1417.99
         C          3.274            2.750     49.03   1417.99
         C          3.274            2.750     49.03   1417.99
         C          3.274            2.750     49.03   1417.99
         C          3.280            2.750     48.92   1414.90
         C          3.280            2.750     48.92   1414.90
         C          3.280            2.750     48.92   1414.90
         C          3.280            2.750     48.92   1414.90
         C          3.280            2.750     48.92   1414.90
         C          3.280            2.750     48.92   1414.90
         C          3.280            2.750     48.92   1414.90
         C          3.280            2.750     48.92   1414.90
         C          3.200            2.750     50.06   1447.70
         C          3.200            2.750     50.06   1447.71
         C          3.200            2.750     50.06   1447.71
         C          3.200            2.750     50.06   1447.71
         C          3.200            2.750     50.06   1447.71
         C          3.200            2.750     50.06   1447.71
         C          3.200            2.750     50.06   1447.71
         C          3.200            2.750     50.06   1447.71
         C          3.182            2.750     50.24   1453.14
         C          3.182            2.750     50.24   1453.15
         C          3.182            2.750     50.24   1453.15
         C          3.182            2.750     50.24   1453.15
         C          3.182            2.750     50.24   1453.14
         C          3.182            2.750     50.24   1453.14
         C          3.182            2.750     50.24   1453.15
         C          3.182            2.750     50.24   1453.14
         C          3.139            2.750     50.62   1463.96
         C          3.139            2.750     50.62   1463.96
         C          3.139            2.750     50.62   1463.96
         C          3.139            2.750     50.62   1463.96
         C          3.139            2.750     50.62   1463.96
         C          3.139            2.750     50.62   1463.96
         C          3.139            2.750     50.62   1463.96
         C          3.139            2.750     50.62   1463.96
         C          3.132            2.750     50.67   1465.48
         C          3.132            2.750     50.67   1465.48
         C          3.132            2.750     50.67   1465.48
         C          3.132            2.750     50.67   1465.48
         C          3.132            2.750     50.67   1465.48
         C          3.132            2.750     50.67   1465.48
         C          3.132            2.750     50.67   1465.48
         C          3.132            2.750     50.67   1465.48
         C          3.185            2.750     50.22   1452.46
         C          3.185            2.750     50.22   1452.46
         C          3.185            2.750     50.22   1452.46
         C          3.185            2.750     50.22   1452.46
         C          3.185            2.750     50.22   1452.46
         C          3.185            2.750     50.22   1452.46
         C          3.185            2.750     50.22   1452.46
         C          3.185            2.750     50.22   1452.46
         C          3.203            2.750     50.03   1446.90
         C          3.203            2.750     50.03   1446.90
         C          3.203            2.750     50.03   1446.90
         C          3.203            2.750     50.03   1446.90
         C          3.203            2.750     50.03   1446.90
         C          3.203            2.750     50.03   1446.90
         C          3.203            2.750     50.03   1446.90
         C          3.203            2.750     50.03   1446.90
         C          3.121            2.750     50.75   1467.86
         C          3.121            2.750     50.75   1467.84
         C          3.121            2.750     50.75   1467.84
         C          3.121            2.750     50.75   1467.84
         C          3.121            2.750     50.75   1467.84
         C          3.121            2.750     50.75   1467.84
         C          3.121            2.750     50.75   1467.84
         C          3.121            2.750     50.75   1467.84
         C          3.169            2.750     50.37   1456.65
         C          3.169            2.750     50.37   1456.65
         C          3.169            2.750     50.37   1456.65
         C          3.169            2.750     50.37   1456.65
         C          3.169            2.750     50.37   1456.65
         C          3.169            2.750     50.37   1456.65
         C          3.169            2.750     50.37   1456.65
         C          3.169            2.750     50.37   1456.65
         C          3.138            2.750     50.63   1464.31
         C          3.138            2.750     50.63   1464.31
         C          3.138            2.750     50.63   1464.31
         C          3.138            2.750     50.63   1464.31
         C          3.138            2.750     50.63   1464.31
         C          3.138            2.750     50.63   1464.31
         C          3.138            2.750     50.63   1464.31
         C          3.138            2.750     50.63   1464.31
         C          3.129            2.750     50.70   1466.24
         C          3.129            2.750     50.70   1466.24
         C          3.129            2.750     50.70   1466.24
         C          3.129            2.750     50.70   1466.24
         C          3.129            2.750     50.70   1466.24
         C          3.129            2.750     50.70   1466.24
         C          3.129            2.750     50.70   1466.24
         C          3.129            2.750     50.70   1466.24
         C          3.132            2.750     50.67   1465.44
         C          3.132            2.750     50.67   1465.44
         C          3.132            2.750     50.67   1465.44
         C          3.132            2.750     50.67   1465.44
         C          3.132            2.750     50.67   1465.44
         C          3.132            2.750     50.67   1465.44
         C          3.132            2.750     50.67   1465.44
         C          3.132            2.750     50.67   1465.44

         Molecular C6 ( Ry / a.u.^6 ) =   1481701.60


     Subspace diagonalization in iterative solution of the eigenvalue problem:
     one sub-group per band group will be used
     scalapack distributed-memory algorithm (size of sub-group:  2*  2 procs)

 
     Parallelization info
     --------------------
     sticks:   dense  smooth     PW     G-vecs:    dense   smooth      PW
     Min        5364    1788    471               912740   175657   23705
     Max        5365    1789    472               912742   175660   23707
     Sum       42913   14309   3771              7301927  1405271  189645
 

     Title: 
     GGA-D3                                                                     


     bravais-lattice index     =            0
     lattice parameter (alat)  =      28.8544  a.u.
     unit-cell volume          =   16015.4736 (a.u.)^3
     number of atoms/cell      =          240
     number of atomic types    =            4
     number of electrons       =       704.00
     number of Kohn-Sham states=          422
     kinetic-energy cutoff     =      75.0000  Ry
     charge density cutoff     =     900.0000  Ry
     convergence threshold     =      1.0E-08
     mixing beta               =       0.7000
     number of iterations used =            8  plain     mixing
     Exchange-correlation= REVPBE
                           (   1   4   4   4   0   0   0)

     celldm(1)=  28.854413  celldm(2)=   0.000000  celldm(3)=   0.000000
     celldm(4)=   0.000000  celldm(5)=   0.000000  celldm(6)=   0.000000

     crystal axes: (cart. coord. in units of alat)
               a(1) = (   0.999982   0.000000  -0.006082 )  
               a(2) = (   0.000000   0.719776   0.000000 )  
               a(3) = (  -0.052353   0.000000   0.926538 )  

     reciprocal axes: (cart. coord. in units 2 pi/alat)
               b(1) = (  1.000362  0.000000  0.056524 )  
               b(2) = (  0.000000  1.389321  0.000000 )  
               b(3) = (  0.006566  0.000000  1.079658 )  


     PseudoPot. # 1 for O  read from file:
     ./o_pbe_v1.2.uspp.F.UPF
     MD5 check sum: 734c27235a0248c51dbae37a1fbe46ec
     Pseudo is Ultrasoft + core correction, Zval =  6.0
     Generated by new atomic code, or converted to UPF format
     Using radial grid of  737 points,  5 beta functions with: 
                l(1) =   0
                l(2) =   0
                l(3) =   1
                l(4) =   1
                l(5) =   2
     Q(r) pseudized with  8 coefficients,  rinner =    0.900   0.900   0.900
                                                       0.900   0.900

     PseudoPot. # 2 for N  read from file:
     ./n_pbe_v1.2.uspp.F.UPF
     MD5 check sum: 95339753478d7afb44899504a8723017
     Pseudo is Ultrasoft + core correction, Zval =  5.0
     Generated by new atomic code, or converted to UPF format
     Using radial grid of  729 points,  4 beta functions with: 
                l(1) =   0
                l(2) =   0
                l(3) =   1
                l(4) =   1
     Q(r) pseudized with  8 coefficients,  rinner =    0.900   0.900   0.900


     PseudoPot. # 3 for H  read from file:
     ./h_pbe_v1.4.uspp.F.UPF
     MD5 check sum: 761ae9a214b05c3daf00ab9f6b793d6f
     Pseudo is Ultrasoft, Zval =  1.0
     Generated by new atomic code, or converted to UPF format
     Using radial grid of  615 points,  2 beta functions with: 
                l(1) =   0
                l(2) =   0
     Q(r) pseudized with  8 coefficients,  rinner =    0.700

     PseudoPot. # 4 for C  read from file:
     ./c_pbe_v1.2.uspp.F.UPF
     MD5 check sum: d1aef80898a10debaa0f26306b886e00
     Pseudo is Ultrasoft + core correction, Zval =  4.0
     Generated by new atomic code, or converted to UPF format
     Using radial grid of  721 points,  4 beta functions with: 
                l(1) =   0
                l(2) =   0
                l(3) =   1
                l(4) =   1
     Q(r) pseudized with  8 coefficients,  rinner =    1.100   1.100   1.100


     atomic species   valence    mass     pseudopotential
        O              6.00    16.00000     O ( 1.00)
        N              5.00    14.00000     N ( 1.00)
        H              1.00     1.00000     H ( 1.00)
        C              4.00    12.00000     C ( 1.00)

     No symmetry found


                                    s                        frac. trans.

      isym =  1     identity                                     

 cryst.   s( 1) = (     1          0          0      )
                  (     0          1          0      )
                  (     0          0          1      )

 cart.    s( 1) = (  1.0000000  0.0000000  0.0000000 )
                  (  0.0000000  1.0000000  0.0000000 )
                  (  0.0000000  0.0000000  1.0000000 )


   Cartesian axes

     site n.     atom                  positions (alat units)
         1           O   tau(   1) = (   0.2502544   0.2711270   0.0846852  )
         2           O   tau(   2) = (   0.7495902   0.2711270   0.0816483  )
         3           O   tau(   3) = (   0.1980387   0.4486489   0.8388075  )
         4           O   tau(   4) = (   0.6980294   0.4486489   0.8357666  )
         5           O   tau(   5) = (   0.4742103   0.6310150   0.3740183  )
         6           O   tau(   6) = (   0.9742011   0.6310150   0.3709774  )
         7           O   tau(   7) = (  -0.0265722   0.0887609   0.5494785  )
         8           O   tau(   8) = (   0.4734185   0.0887609   0.5464376  )
         9           N   tau(   9) = (   0.1422572   0.1680166   0.0563504  )
        10           N   tau(  10) = (   0.6422480   0.1680166   0.0533095  )
        11           N   tau(  11) = (   0.3053809   0.5517594   0.8671464  )
        12           N   tau(  12) = (   0.8053717   0.5517594   0.8641055  )
        13           N   tau(  13) = (   0.0815619   0.5279045   0.4053980  )
        14           N   tau(  14) = (   0.5815526   0.5279045   0.4023571  )
        15           N   tau(  15) = (   0.3660763   0.1918714   0.5180987  )
        16           N   tau(  16) = (   0.8660670   0.1918714   0.5150579  )
        17           N   tau(  17) = (   0.1099124   0.2884401   0.8902341  )
        18           N   tau(  18) = (   0.6099032   0.2884401   0.8871932  )
        19           N   tau(  19) = (   0.3377257   0.4313358   0.0332626  )
        20           N   tau(  20) = (   0.8377165   0.4313358   0.0302217  )
        21           N   tau(  21) = (   0.0615541   0.6483281   0.4980519  )
        22           N   tau(  22) = (   0.5615448   0.6483281   0.4950110  )
        23           N   tau(  23) = (   0.3860841   0.0714478   0.4254449  )
        24           N   tau(  24) = (   0.8860749   0.0714478   0.4224040  )
        25           H   tau(  25) = (   0.0589114   0.2668678   0.8538157  )
        26           H   tau(  26) = (   0.5589022   0.2668678   0.8507748  )
        27           H   tau(  27) = (   0.3887267   0.4529081   0.0696811  )
        28           H   tau(  28) = (   0.8887175   0.4529081   0.0666402  )
        29           H   tau(  29) = (   0.1125550   0.6267558   0.5344703  )
        30           H   tau(  30) = (   0.6125458   0.6267558   0.5314294  )
        31           H   tau(  31) = (   0.3350831   0.0930201   0.3890264  )
        32           H   tau(  32) = (   0.8350739   0.0930201   0.3859855  )
        33           H   tau(  33) = (   0.1410682   0.3457783   0.8732135  )
        34           H   tau(  34) = (   0.6410590   0.3457783   0.8701726  )
        35           H   tau(  35) = (   0.3065699   0.3739977   0.0502833  )
        36           H   tau(  36) = (   0.8065606   0.3739977   0.0472424  )
        37           H   tau(  37) = (   0.0303982   0.7056662   0.5150725  )
        38           H   tau(  38) = (   0.5303890   0.7056662   0.5120316  )
        39           H   tau(  39) = (   0.4172399   0.0141097   0.4084242  )
        40           H   tau(  40) = (   0.9172307   0.0141097   0.4053833  )
        41           H   tau(  41) = (   0.3125869   0.0028428   0.2432018  )
        42           H   tau(  42) = (   0.8125776   0.0028428   0.2401609  )
        43           H   tau(  43) = (   0.1350513   0.7169331   0.6802949  )
        44           H   tau(  44) = (   0.6350420   0.7169331   0.6772540  )
        45           H   tau(  45) = (   0.4112229   0.3627308   0.2155056  )
        46           H   tau(  46) = (   0.9112137   0.3627308   0.2124647  )
        47           H   tau(  47) = (   0.0364152   0.3570452   0.7079911  )
        48           H   tau(  48) = (   0.5364060   0.3570452   0.7049502  )
        49           H   tau(  49) = (   0.2862829   0.0805352   0.1025079  )
        50           H   tau(  50) = (   0.7862737   0.0805352   0.0994670  )
        51           H   tau(  51) = (   0.1613552   0.6392408   0.8209889  )
        52           H   tau(  52) = (   0.6613460   0.6392408   0.8179480  )
        53           H   tau(  53) = (   0.4375269   0.4404231   0.3561996  )
        54           H   tau(  54) = (   0.9375176   0.4404231   0.3531587  )
        55           H   tau(  55) = (   0.0101113   0.2793528   0.5672971  )
        56           H   tau(  56) = (   0.5101020   0.2793528   0.5642562  )
        57           H   tau(  57) = (   0.3001471   0.1243365   0.9053495  )
        58           H   tau(  58) = (   0.8001378   0.1243365   0.9023086  )
        59           H   tau(  59) = (   0.1474911   0.5954394   0.0181472  )
        60           H   tau(  60) = (   0.6474818   0.5954394   0.0151063  )
        61           H   tau(  61) = (   0.3713101   0.4842245   0.4798956  )
        62           H   tau(  62) = (   0.8713009   0.4842245   0.4768547  )
        63           H   tau(  63) = (   0.0763280   0.2355514   0.4436011  )
        64           H   tau(  64) = (   0.5763188   0.2355514   0.4405602  )
        65           H   tau(  65) = (   0.3405358   0.0662204   0.7590797  )
        66           H   tau(  66) = (   0.8405266   0.0662204   0.7560388  )
        67           H   tau(  67) = (   0.1071023   0.6535555   0.1644170  )
        68           H   tau(  68) = (   0.6070931   0.6535555   0.1613761  )
        69           H   tau(  69) = (   0.3309214   0.4261084   0.6261654  )
        70           H   tau(  70) = (   0.8309121   0.4261084   0.6231245  )
        71           H   tau(  71) = (   0.1167168   0.2936675   0.2973314  )
        72           H   tau(  72) = (   0.6167075   0.2936675   0.2942905  )
        73           H   tau(  73) = (   0.1953110   0.0004415   0.3578520  )
        74           H   tau(  74) = (   0.6953017   0.0004415   0.3548111  )
        75           H   tau(  75) = (   0.2523272   0.7193344   0.5656447  )
        76           H   tau(  76) = (   0.7523179   0.7193344   0.5626038  )
        77           H   tau(  77) = (   0.0285081   0.3603294   0.1038964  )
        78           H   tau(  78) = (   0.5284988   0.3603294   0.1008555  )
        79           H   tau(  79) = (   0.4191300   0.3594465   0.8196004  )
        80           H   tau(  80) = (   0.9191208   0.3594465   0.8165595  )
        81           H   tau(  81) = (   0.0547828   0.0765904   0.3307806  )
        82           H   tau(  82) = (   0.5547735   0.0765904   0.3277397  )
        83           H   tau(  83) = (   0.3928554   0.6431855   0.5927162  )
        84           H   tau(  84) = (   0.8928461   0.6431855   0.5896753  )
        85           H   tau(  85) = (   0.1690363   0.4364784   0.1309678  )
        86           H   tau(  86) = (   0.6690271   0.4364784   0.1279269  )
        87           H   tau(  87) = (   0.2786018   0.2832975   0.7925289  )
        88           H   tau(  88) = (   0.7785926   0.2832975   0.7894880  )
        89           H   tau(  89) = (   0.1138012   0.0950679   0.8274508  )
        90           H   tau(  90) = (   0.6137920   0.0950679   0.8244099  )
        91           H   tau(  91) = (   0.3338369   0.6247080   0.0960460  )
        92           H   tau(  92) = (   0.8338276   0.6247080   0.0930051  )
        93           H   tau(  93) = (   0.0576652   0.4549559   0.5608352  )
        94           H   tau(  94) = (   0.5576560   0.4549559   0.5577943  )
        95           H   tau(  95) = (   0.3899729   0.2648201   0.3626615  )
        96           H   tau(  96) = (   0.8899637   0.2648201   0.3596206  )
        97           H   tau(  97) = (  -0.0034623   0.0514439   0.7202972  )
        98           H   tau(  98) = (   0.4965284   0.0514439   0.7172563  )
        99           H   tau(  99) = (   0.4511004   0.6683320   0.2031995  )
       100           H   tau( 100) = (   0.9510912   0.6683320   0.2001586  )
       101           H   tau( 101) = (   0.1749288   0.4113319   0.6679888  )
       102           H   tau( 102) = (   0.6749195   0.4113319   0.6649479  )
       103           H   tau( 103) = (   0.2727094   0.3084441   0.2555080  )
       104           H   tau( 104) = (   0.7727001   0.3084441   0.2524671  )
       105           H   tau( 105) = (   0.3919180   0.1974007   0.1132687  )
       106           H   tau( 106) = (   0.8919087   0.1974007   0.1102278  )
       107           H   tau( 107) = (   0.0557202   0.5223752   0.8102281  )
       108           H   tau( 108) = (   0.5557109   0.5223752   0.8071872  )
       109           H   tau( 109) = (   0.3318919   0.5572887   0.3454388  )
       110           H   tau( 110) = (   0.8318826   0.5572887   0.3423979  )
       111           H   tau( 111) = (   0.1157463   0.1624872   0.5780579  )
       112           H   tau( 112) = (   0.6157370   0.1624872   0.5750170  )
       113           H   tau( 113) = (   0.4691773   0.1789752   0.2455233  )
       114           H   tau( 114) = (   0.9691681   0.1789752   0.2424824  )
       115           H   tau( 115) = (  -0.0215392   0.5408007   0.6779734  )
       116           H   tau( 116) = (   0.4784515   0.5408007   0.6749325  )
       117           H   tau( 117) = (   0.2546325   0.5388632   0.2131841  )
       118           H   tau( 118) = (   0.7546232   0.5388632   0.2101432  )
       119           H   tau( 119) = (   0.1930057   0.1809127   0.7103126  )
       120           H   tau( 120) = (   0.6929964   0.1809127   0.7072717  )
       121           C   tau( 121) = (   0.2504817   0.0360676   0.2319634  )
       122           C   tau( 122) = (   0.7504725   0.0360676   0.2289225  )
       123           C   tau( 123) = (   0.1971564   0.6837083   0.6915333  )
       124           C   tau( 124) = (   0.6971472   0.6837083   0.6884924  )
       125           C   tau( 125) = (   0.9733189   0.3959556   0.2237032  )
       126           C   tau( 126) = (   0.4733281   0.3959556   0.2267441  )
       127           C   tau( 127) = (  -0.0256900   0.3238204   0.6967527  )
       128           C   tau( 128) = (   0.4743008   0.3238204   0.6937118  )
       129           C   tau( 129) = (   0.2358123   0.0793621   0.1526730  )
       130           C   tau( 130) = (   0.7358030   0.0793621   0.1496321  )
       131           C   tau( 131) = (   0.2118259   0.6404138   0.7708237  )
       132           C   tau( 132) = (   0.7118166   0.6404138   0.7677828  )
       133           C   tau( 133) = (  -0.0119932   0.4392501   0.3090753  )
       134           C   tau( 134) = (   0.4879976   0.4392501   0.3060344  )
       135           C   tau( 135) = (   0.4596313   0.2805258   0.6144214  )
       136           C   tau( 136) = (   0.9596221   0.2805258   0.6113805  )
       137           C   tau( 137) = (   0.1563582   0.1224511   0.1372838  )
       138           C   tau( 138) = (   0.6563490   0.1224511   0.1342429  )
       139           C   tau( 139) = (   0.2912799   0.5973248   0.7862130  )
       140           C   tau( 140) = (   0.7912707   0.5973248   0.7831721  )
       141           C   tau( 141) = (   0.0674609   0.4823391   0.3244646  )
       142           C   tau( 142) = (   0.5674516   0.4823391   0.3214237  )
       143           C   tau( 143) = (   0.3801773   0.2374368   0.5990321  )
       144           C   tau( 144) = (   0.8801680   0.2374368   0.5959912  )
       145           C   tau( 145) = (   0.0744743   0.1351269  -0.0000575  )
       146           C   tau( 146) = (   0.5744650   0.1351269  -0.0030984  )
       147           C   tau( 147) = (   0.3731639   0.5846490   0.9235542  )
       148           C   tau( 148) = (   0.8731546   0.5846490   0.9205133  )
       149           C   tau( 149) = (   0.1493448   0.4950148   0.4618059  )
       150           C   tau( 150) = (   0.6493355   0.4950148   0.4587650  )
       151           C   tau( 151) = (   0.2982934   0.2247611   0.4616909  )
       152           C   tau( 152) = (   0.7982841   0.2247611   0.4586500  )
       153           C   tau( 153) = (   0.4856657   0.1423129   0.0224270  )
       154           C   tau( 154) = (   0.9856565   0.1423129   0.0193861  )
       155           C   tau( 155) = (  -0.0380276   0.5774631   0.9010698  )
       156           C   tau( 156) = (   0.4619632   0.5774631   0.8980289  )
       157           C   tau( 157) = (   0.2381441   0.5022008   0.4362805  )
       158           C   tau( 158) = (   0.7381349   0.5022008   0.4332396  )
       159           C   tau( 159) = (   0.2094940   0.2175751   0.4872162  )
       160           C   tau( 160) = (   0.7094848   0.2175751   0.4841753  )
       161           C   tau( 161) = (   0.3688878   0.1170773   0.8875289  )
       162           C   tau( 162) = (   0.8688786   0.1170773   0.8844881  )
       163           C   tau( 163) = (   0.0787503   0.6026986   0.0359678  )
       164           C   tau( 164) = (   0.5787411   0.6026986   0.0329269  )
       165           C   tau( 165) = (   0.3025694   0.4769653   0.4977161  )
       166           C   tau( 166) = (   0.8025601   0.4769653   0.4946753  )
       167           C   tau( 167) = (   0.1450688   0.2428107   0.4257806  )
       168           C   tau( 168) = (   0.6450595   0.2428107   0.4227397  )
       169           C   tau( 169) = (   0.3913725   0.0843134   0.8054980  )
       170           C   tau( 170) = (   0.8913633   0.0843134   0.8024571  )
       171           C   tau( 171) = (   0.0562656   0.6354626   0.1179988  )
       172           C   tau( 172) = (   0.5562564   0.6354626   0.1149579  )
       173           C   tau( 173) = (   0.2800847   0.4442013   0.5797471  )
       174           C   tau( 174) = (   0.7800754   0.4442013   0.5767062  )
       175           C   tau( 175) = (   0.1675535   0.2755746   0.3437496  )
       176           C   tau( 176) = (   0.6675442   0.2755746   0.3407087  )
       177           C   tau( 177) = (   0.1850395   0.0351748   0.2964153  )
       178           C   tau( 178) = (   0.6850303   0.0351748   0.2933744  )
       179           C   tau( 179) = (   0.2625986   0.6846012   0.6270814  )
       180           C   tau( 180) = (   0.7625894   0.6846012   0.6240406  )
       181           C   tau( 181) = (   0.0387795   0.3950627   0.1653331  )
       182           C   tau( 182) = (   0.5387703   0.3950627   0.1622922  )
       183           C   tau( 183) = (   0.4088586   0.3247132   0.7581636  )
       184           C   tau( 184) = (   0.9088493   0.3247132   0.7551228  )
       185           C   tau( 185) = (   0.1059048   0.0777471   0.2810816  )
       186           C   tau( 186) = (   0.6058955   0.0777471   0.2780407  )
       187           C   tau( 187) = (   0.3417334   0.6420288   0.6424152  )
       188           C   tau( 188) = (   0.8417241   0.6420288   0.6393743  )
       189           C   tau( 189) = (   0.1179143   0.4376351   0.1806668  )
       190           C   tau( 190) = (   0.6179050   0.4376351   0.1776259  )
       191           C   tau( 191) = (   0.3297239   0.2821408   0.7428299  )
       192           C   tau( 192) = (   0.8297146   0.2821408   0.7397890  )
       193           C   tau( 193) = (   0.0891396   0.1213518   0.2011521  )
       194           C   tau( 194) = (   0.5891303   0.1213518   0.1981112  )
       195           C   tau( 195) = (   0.3584986   0.5984241   0.7223446  )
       196           C   tau( 196) = (   0.8584893   0.5984241   0.7193037  )
       197           C   tau( 197) = (   0.1346795   0.4812398   0.2605963  )
       198           C   tau( 198) = (   0.6346702   0.4812398   0.2575554  )
       199           C   tau( 199) = (   0.3129587   0.2385362   0.6629005  )
       200           C   tau( 200) = (   0.8129494   0.2385362   0.6598596  )
       201           C   tau( 201) = (   0.1881712   0.2446500   0.0368817  )
       202           C   tau( 202) = (   0.6881619   0.2446500   0.0338408  )
       203           C   tau( 203) = (   0.2594669   0.4751259   0.8866150  )
       204           C   tau( 204) = (   0.7594577   0.4751259   0.8835741  )
       205           C   tau( 205) = (   0.0356479   0.6045380   0.4248667  )
       206           C   tau( 206) = (   0.5356386   0.6045380   0.4218258  )
       207           C   tau( 207) = (   0.4119903   0.1152380   0.4986301  )
       208           C   tau( 208) = (   0.9119810   0.1152380   0.4955892  )
       209           C   tau( 209) = (   0.0447080   0.1003238   0.8445342  )
       210           C   tau( 210) = (   0.5446987   0.1003238   0.8414933  )
       211           C   tau( 211) = (   0.4029302   0.6194521   0.0789625  )
       212           C   tau( 212) = (   0.9029209   0.6194521   0.0759216  )
       213           C   tau( 213) = (   0.1267585   0.4602117   0.5437518  )
       214           C   tau( 214) = (   0.6267492   0.4602117   0.5407109  )
       215           C   tau( 215) = (   0.3208797   0.2595642   0.3797450  )
       216           C   tau( 216) = (   0.8208704   0.2595642   0.3767041  )
       217           C   tau( 217) = (  -0.0203738   0.0755318   0.7851814  )
       218           C   tau( 218) = (   0.4796170   0.0755318   0.7821405  )
       219           C   tau( 219) = (   0.4680119   0.6442441   0.1383154  )
       220           C   tau( 220) = (   0.9680026   0.6442441   0.1352745  )
       221           C   tau( 221) = (   0.1918402   0.4354197   0.6031046  )
       222           C   tau( 222) = (   0.6918310   0.4354197   0.6000637  )
       223           C   tau( 223) = (   0.2557979   0.2843562   0.3203921  )
       224           C   tau( 224) = (   0.7557887   0.2843562   0.3173512  )
       225           C   tau( 225) = (   0.4585283   0.1716450   0.1091139  )
       226           C   tau( 226) = (   0.9585190   0.1716450   0.1060730  )
       227           C   tau( 227) = (  -0.0108901   0.5481309   0.8143829  )
       228           C   tau( 228) = (   0.4891006   0.5481309   0.8113420  )
       229           C   tau( 229) = (   0.2652816   0.5315330   0.3495936  )
       230           C   tau( 230) = (   0.7652723   0.5315330   0.3465527  )
       231           C   tau( 231) = (   0.1823566   0.1882429   0.5739031  )
       232           C   tau( 232) = (   0.6823473   0.1882429   0.5708622  )
       233           C   tau( 233) = (   0.0034621   0.1615289   0.1882557  )
       234           C   tau( 234) = (   0.5034529   0.1615289   0.1852148  )
       235           C   tau( 235) = (   0.4441760   0.5582470   0.7352411  )
       236           C   tau( 236) = (   0.9441668   0.5582470   0.7322002  )
       237           C   tau( 237) = (   0.2203570   0.5214169   0.2734927  )
       238           C   tau( 238) = (   0.7203477   0.5214169   0.2704518  )
       239           C   tau( 239) = (   0.2272812   0.1983590   0.6500040  )
       240           C   tau( 240) = (   0.7272719   0.1983590   0.6469631  )

   Crystallographic axes

     site n.     atom                  positions (cryst. coord.)
         1           O   tau(   1) = (  0.2551318  0.3766826  0.0930743  )
         2           O   tau(   2) = (  0.7544769  0.3766826  0.0930743  )
         3           O   tau(   3) = (  0.2455231  0.6233174  0.9069257  )
         4           O   tau(   4) = (  0.7455231  0.6233174  0.9069257  )
         5           O   tau(   5) = (  0.4955231  0.8766826  0.4069257  )
         6           O   tau(   6) = (  0.9955231  0.8766826  0.4069257  )
         7           O   tau(   7) = (  0.0044769  0.1233174  0.5930743  )
         8           O   tau(   8) = (  0.5044769  0.1233174  0.5930743  )
         9           N   tau(   9) = (  0.1454939  0.2334290  0.0617732  )
        10           N   tau(  10) = (  0.6454939  0.2334290  0.0617732  )
        11           N   tau(  11) = (  0.3545061  0.7665710  0.9382267  )
        12           N   tau(  12) = (  0.8545061  0.7665710  0.9382267  )
        13           N   tau(  13) = (  0.1045061  0.7334290  0.4382267  )
        14           N   tau(  14) = (  0.6045061  0.7334290  0.4382267  )
        15           N   tau(  15) = (  0.3954939  0.2665710  0.5617733  )
        16           N   tau(  16) = (  0.8954939  0.2665710  0.5617733  )
        17           N   tau(  17) = (  0.1602718  0.4007360  0.9618701  )
        18           N   tau(  18) = (  0.6602718  0.4007360  0.9618701  )
        19           N   tau(  19) = (  0.3397282  0.5992640  0.0381299  )
        20           N   tau(  20) = (  0.8397282  0.5992640  0.0381299  )
        21           N   tau(  21) = (  0.0897282  0.9007360  0.5381299  )
        22           N   tau(  22) = (  0.5897282  0.9007360  0.5381299  )
        23           N   tau(  23) = (  0.4102718  0.0992640  0.4618701  )
        24           N   tau(  24) = (  0.9102718  0.0992640  0.4618701  )
        25           H   tau(  25) = (  0.1071938  0.3707651  0.9222158  )
        26           H   tau(  26) = (  0.6071938  0.3707651  0.9222158  )
        27           H   tau(  27) = (  0.3928062  0.6292349  0.0777843  )
        28           H   tau(  28) = (  0.8928062  0.6292349  0.0777843  )
        29           H   tau(  29) = (  0.1428062  0.8707651  0.5777842  )
        30           H   tau(  30) = (  0.6428062  0.8707651  0.5777842  )
        31           H   tau(  31) = (  0.3571938  0.1292349  0.4222157  )
        32           H   tau(  32) = (  0.8571938  0.1292349  0.4222157  )
        33           H   tau(  33) = (  0.1904768  0.4803971  0.9436982  )
        34           H   tau(  34) = (  0.6904768  0.4803971  0.9436982  )
        35           H   tau(  35) = (  0.3095232  0.5196029  0.0563018  )
        36           H   tau(  36) = (  0.8095232  0.5196029  0.0563018  )
        37           H   tau(  37) = (  0.0595232  0.9803971  0.5563018  )
        38           H   tau(  38) = (  0.5595232  0.9803971  0.5563018  )
        39           H   tau(  39) = (  0.4404768  0.0196029  0.4436982  )
        40           H   tau(  40) = (  0.9404768  0.0196029  0.4436982  )
        41           H   tau(  41) = (  0.3264469  0.0039496  0.2646274  )
        42           H   tau(  42) = (  0.8264469  0.0039496  0.2646274  )
        43           H   tau(  43) = (  0.1735531  0.9960504  0.7353726  )
        44           H   tau(  44) = (  0.6735531  0.9960504  0.7353726  )
        45           H   tau(  45) = (  0.4235531  0.5039496  0.2353726  )
        46           H   tau(  46) = (  0.9235531  0.5039496  0.2353726  )
        47           H   tau(  47) = (  0.0764469  0.4960504  0.7646274  )
        48           H   tau(  48) = (  0.5764469  0.4960504  0.7646274  )
        49           H   tau(  49) = (  0.2921808  0.1118892  0.1125533  )
        50           H   tau(  50) = (  0.7921808  0.1118892  0.1125533  )
        51           H   tau(  51) = (  0.2078192  0.8881108  0.8874467  )
        52           H   tau(  52) = (  0.7078192  0.8881108  0.8874467  )
        53           H   tau(  53) = (  0.4578192  0.6118892  0.3874467  )
        54           H   tau(  54) = (  0.9578192  0.6118892  0.3874467  )
        55           H   tau(  55) = (  0.0421808  0.3881108  0.6125533  )
        56           H   tau(  56) = (  0.5421808  0.3881108  0.6125533  )
        57           H   tau(  57) = (  0.3514298  0.1727434  0.9794387  )
        58           H   tau(  58) = (  0.8514298  0.1727434  0.9794387  )
        59           H   tau(  59) = (  0.1485702  0.8272566  0.0205613  )
        60           H   tau(  60) = (  0.6485702  0.8272566  0.0205613  )
        61           H   tau(  61) = (  0.3985702  0.6727434  0.5205613  )
        62           H   tau(  62) = (  0.8985702  0.6727434  0.5205613  )
        63           H   tau(  63) = (  0.1014298  0.3272566  0.4794387  )
        64           H   tau(  64) = (  0.6014298  0.3272566  0.4794387  )
        65           H   tau(  65) = (  0.3835654  0.0920014  0.8217826  )
        66           H   tau(  66) = (  0.8835654  0.0920014  0.8217826  )
        67           H   tau(  67) = (  0.1164346  0.9079986  0.1782174  )
        68           H   tau(  68) = (  0.6164346  0.9079986  0.1782174  )
        69           H   tau(  69) = (  0.3664346  0.5920014  0.6782174  )
        70           H   tau(  70) = (  0.8664346  0.5920014  0.6782174  )
        71           H   tau(  71) = (  0.1335654  0.4079986  0.3217826  )
        72           H   tau(  72) = (  0.6335654  0.4079986  0.3217826  )
        73           H   tau(  73) = (  0.2156090  0.0006134  0.3876403  )
        74           H   tau(  74) = (  0.7156090  0.0006134  0.3876403  )
        75           H   tau(  75) = (  0.2843911  0.9993866  0.6123597  )
        76           H   tau(  76) = (  0.7843911  0.9993866  0.6123597  )
        77           H   tau(  77) = (  0.0343910  0.5006134  0.1123597  )
        78           H   tau(  78) = (  0.5343910  0.5006134  0.1123597  )
        79           H   tau(  79) = (  0.4656089  0.4993866  0.8876403  )
        80           H   tau(  80) = (  0.9656089  0.4993866  0.8876403  )
        81           H   tau(  81) = (  0.0734996  0.1064087  0.3574897  )
        82           H   tau(  82) = (  0.5734996  0.1064087  0.3574897  )
        83           H   tau(  83) = (  0.4265004  0.8935913  0.6425104  )
        84           H   tau(  84) = (  0.9265004  0.8935913  0.6425104  )
        85           H   tau(  85) = (  0.1765004  0.6064087  0.1425103  )
        86           H   tau(  86) = (  0.6765004  0.6064087  0.1425103  )
        87           H   tau(  87) = (  0.3234996  0.3935913  0.8574896  )
        88           H   tau(  88) = (  0.8234996  0.3935913  0.8574896  )
        89           H   tau(  89) = (  0.1606133  0.1320798  0.8941111  )
        90           H   tau(  90) = (  0.6606133  0.1320798  0.8941111  )
        91           H   tau(  91) = (  0.3393867  0.8679201  0.1058889  )
        92           H   tau(  92) = (  0.8393867  0.8679201  0.1058889  )
        93           H   tau(  93) = (  0.0893867  0.6320799  0.6058889  )
        94           H   tau(  94) = (  0.5893867  0.6320799  0.6058889  )
        95           H   tau(  95) = (  0.4106133  0.3679201  0.3941111  )
        96           H   tau(  96) = (  0.9106133  0.3679201  0.3941111  )
        97           H   tau(  97) = (  0.0372505  0.0714721  0.7776519  )
        98           H   tau(  98) = (  0.5372505  0.0714721  0.7776519  )
        99           H   tau(  99) = (  0.4627495  0.9285279  0.2223481  )
       100           H   tau( 100) = (  0.9627495  0.9285279  0.2223481  )
       101           H   tau( 101) = (  0.2127495  0.5714721  0.7223481  )
       102           H   tau( 102) = (  0.7127495  0.5714721  0.7223481  )
       103           H   tau( 103) = (  0.2872505  0.4285279  0.2776519  )
       104           H   tau( 104) = (  0.7872505  0.4285279  0.2776519  )
       105           H   tau( 105) = (  0.3984623  0.2742530  0.1248649  )
       106           H   tau( 106) = (  0.8984623  0.2742530  0.1248649  )
       107           H   tau( 107) = (  0.1015377  0.7257470  0.8751351  )
       108           H   tau( 108) = (  0.6015377  0.7257470  0.8751351  )
       109           H   tau( 109) = (  0.3515377  0.7742530  0.3751351  )
       110           H   tau( 110) = (  0.8515377  0.7742530  0.3751351  )
       111           H   tau( 111) = (  0.1484623  0.2257470  0.6248649  )
       112           H   tau( 112) = (  0.6484623  0.2257470  0.6248649  )
       113           H   tau( 113) = (  0.4832253  0.2486541  0.2681620  )
       114           H   tau( 114) = (  0.9832253  0.2486541  0.2681620  )
       115           H   tau( 115) = (  0.0167747  0.7513459  0.7318380  )
       116           H   tau( 116) = (  0.5167747  0.7513459  0.7318380  )
       117           H   tau( 117) = (  0.2667747  0.7486541  0.2318380  )
       118           H   tau( 118) = (  0.7667747  0.7486541  0.2318380  )
       119           H   tau( 119) = (  0.2332253  0.2513459  0.7681620  )
       120           H   tau( 120) = (  0.7332253  0.2513459  0.7681620  )
       121           C   tau( 121) = (  0.2636839  0.0501095  0.2520859  )
       122           C   tau( 122) = (  0.7636839  0.0501095  0.2520859  )
       123           C   tau( 123) = (  0.2363161  0.9498905  0.7479141  )
       124           C   tau( 124) = (  0.7363161  0.9498905  0.7479141  )
       125           C   tau( 125) = (  0.9863161  0.5501095  0.2479141  )
       126           C   tau( 126) = (  0.4863161  0.5501095  0.2479141  )
       127           C   tau( 127) = (  0.0136839  0.4498905  0.7520859  )
       128           C   tau( 128) = (  0.5136839  0.4498905  0.7520859  )
       129           C   tau( 129) = (  0.2445274  0.1102595  0.1663831  )
       130           C   tau( 130) = (  0.7445274  0.1102595  0.1663831  )
       131           C   tau( 131) = (  0.2554726  0.8897405  0.8336169  )
       132           C   tau( 132) = (  0.7554726  0.8897405  0.8336169  )
       133           C   tau( 133) = (  0.0054726  0.6102595  0.3336169  )
       134           C   tau( 134) = (  0.5054726  0.6102595  0.3336169  )
       135           C   tau( 135) = (  0.4945274  0.3897405  0.6663831  )
       136           C   tau( 136) = (  0.9945274  0.3897405  0.6663831  )
       137           C   tau( 137) = (  0.1641747  0.1701240  0.1492462  )
       138           C   tau( 138) = (  0.6641747  0.1701240  0.1492462  )
       139           C   tau( 139) = (  0.3358253  0.8298760  0.8507538  )
       140           C   tau( 140) = (  0.8358253  0.8298760  0.8507538  )
       141           C   tau( 141) = (  0.0858253  0.6701240  0.3507538  )
       142           C   tau( 142) = (  0.5858253  0.6701240  0.3507538  )
       143           C   tau( 143) = (  0.4141747  0.3298760  0.6492462  )
       144           C   tau( 144) = (  0.9141747  0.3298760  0.6492462  )
       145           C   tau( 145) = (  0.0744980  0.1877347  0.0004269  )
       146           C   tau( 146) = (  0.5744980  0.1877347  0.0004269  )
       147           C   tau( 147) = (  0.4255020  0.8122653  0.9995731  )
       148           C   tau( 148) = (  0.9255020  0.8122653  0.9995731  )
       149           C   tau( 149) = (  0.1755020  0.6877347  0.4995731  )
       150           C   tau( 150) = (  0.6755020  0.6877347  0.4995731  )
       151           C   tau( 151) = (  0.3244980  0.3122653  0.5004269  )
       152           C   tau( 152) = (  0.8244980  0.3122653  0.5004269  )
       153           C   tau( 153) = (  0.4871093  0.1977183  0.0274025  )
       154           C   tau( 154) = (  0.9871093  0.1977183  0.0274025  )
       155           C   tau( 155) = (  0.0128907  0.8022817  0.9725975  )
       156           C   tau( 156) = (  0.5128907  0.8022817  0.9725975  )
       157           C   tau( 157) = (  0.2628907  0.6977183  0.4725975  )
       158           C   tau( 158) = (  0.7628907  0.6977183  0.4725975  )
       159           C   tau( 159) = (  0.2371093  0.3022817  0.5274025  )
       160           C   tau( 160) = (  0.7371093  0.3022817  0.5274025  )
       161           C   tau( 161) = (  0.4191881  0.1626580  0.9606500  )
       162           C   tau( 162) = (  0.9191881  0.1626580  0.9606500  )
       163           C   tau( 163) = (  0.0808119  0.8373420  0.0393500  )
       164           C   tau( 164) = (  0.5808119  0.8373420  0.0393500  )
       165           C   tau( 165) = (  0.3308119  0.6626580  0.5393500  )
       166           C   tau( 166) = (  0.8308119  0.6626580  0.5393500  )
       167           C   tau( 167) = (  0.1691881  0.3373420  0.4606500  )
       168           C   tau( 168) = (  0.6691881  0.3373420  0.4606500  )
       169           C   tau( 169) = (  0.4370442  0.1171384  0.8722322  )
       170           C   tau( 170) = (  0.9370442  0.1171384  0.8722322  )
       171           C   tau( 171) = (  0.0629558  0.8828617  0.1277678  )
       172           C   tau( 172) = (  0.5629558  0.8828617  0.1277678  )
       173           C   tau( 173) = (  0.3129558  0.6171383  0.6277678  )
       174           C   tau( 174) = (  0.8129558  0.6171383  0.6277678  )
       175           C   tau( 175) = (  0.1870443  0.3828616  0.3722322  )
       176           C   tau( 176) = (  0.6870443  0.3828616  0.3722322  )
       177           C   tau( 177) = (  0.2018611  0.0488691  0.3212422  )
       178           C   tau( 178) = (  0.7018611  0.0488691  0.3212422  )
       179           C   tau( 179) = (  0.2981389  0.9511310  0.6787578  )
       180           C   tau( 180) = (  0.7981389  0.9511310  0.6787578  )
       181           C   tau( 181) = (  0.0481389  0.5488690  0.1787578  )
       182           C   tau( 182) = (  0.5481389  0.5488690  0.1787578  )
       183           C   tau( 183) = (  0.4518611  0.4511310  0.8212422  )
       184           C   tau( 184) = (  0.9518611  0.4511310  0.8212422  )
       185           C   tau( 185) = (  0.1218310  0.1080157  0.3041674  )
       186           C   tau( 186) = (  0.6218310  0.1080157  0.3041674  )
       187           C   tau( 187) = (  0.3781690  0.8919842  0.6958326  )
       188           C   tau( 188) = (  0.8781690  0.8919842  0.6958326  )
       189           C   tau( 189) = (  0.1281690  0.6080158  0.1958326  )
       190           C   tau( 190) = (  0.6281690  0.6080158  0.1958326  )
       191           C   tau( 191) = (  0.3718310  0.3919843  0.8041674  )
       192           C   tau( 192) = (  0.8718310  0.3919843  0.8041674  )
       193           C   tau( 193) = (  0.1005418  0.1685967  0.2177608  )
       194           C   tau( 194) = (  0.6005418  0.1685967  0.2177608  )
       195           C   tau( 195) = (  0.3994582  0.8314034  0.7822392  )
       196           C   tau( 196) = (  0.8994582  0.8314034  0.7822392  )
       197           C   tau( 197) = (  0.1494582  0.6685966  0.2822392  )
       198           C   tau( 198) = (  0.6494582  0.6685966  0.2822392  )
       199           C   tau( 199) = (  0.3505418  0.3314034  0.7177608  )
       200           C   tau( 200) = (  0.8505418  0.3314034  0.7177608  )
       201           C   tau( 201) = (  0.1903240  0.3398975  0.0410552  )
       202           C   tau( 202) = (  0.6903240  0.3398975  0.0410552  )
       203           C   tau( 203) = (  0.3096759  0.6601025  0.9589448  )
       204           C   tau( 204) = (  0.8096759  0.6601025  0.9589448  )
       205           C   tau( 205) = (  0.0596760  0.8398975  0.4589448  )
       206           C   tau( 206) = (  0.5596760  0.8398975  0.4589448  )
       207           C   tau( 207) = (  0.4403241  0.1601025  0.5410552  )
       208           C   tau( 208) = (  0.9403241  0.1601025  0.5410552  )
       209           C   tau( 209) = (  0.0924606  0.1393820  0.9121017  )
       210           C   tau( 210) = (  0.5924606  0.1393820  0.9121017  )
       211           C   tau( 211) = (  0.4075394  0.8606180  0.0878983  )
       212           C   tau( 212) = (  0.9075394  0.8606180  0.0878983  )
       213           C   tau( 213) = (  0.1575394  0.6393820  0.5878983  )
       214           C   tau( 214) = (  0.6575394  0.6393820  0.5878983  )
       215           C   tau( 215) = (  0.3424606  0.3606180  0.4121017  )
       216           C   tau( 216) = (  0.8424606  0.3606180  0.4121017  )
       217           C   tau( 217) = (  0.0240004  0.1049379  0.8475936  )
       218           C   tau( 218) = (  0.5240004  0.1049379  0.8475936  )
       219           C   tau( 219) = (  0.4759996  0.8950621  0.1524065  )
       220           C   tau( 220) = (  0.9759996  0.8950621  0.1524065  )
       221           C   tau( 221) = (  0.2259996  0.6049379  0.6524064  )
       222           C   tau( 222) = (  0.7259996  0.6049379  0.6524064  )
       223           C   tau( 223) = (  0.2740004  0.3950621  0.3475936  )
       224           C   tau( 224) = (  0.7740004  0.3950621  0.3475936  )
       225           C   tau( 225) = (  0.4648619  0.2384701  0.1208165  )
       226           C   tau( 226) = (  0.9648619  0.2384701  0.1208165  )
       227           C   tau( 227) = (  0.0351381  0.7615299  0.8791835  )
       228           C   tau( 228) = (  0.5351381  0.7615299  0.8791835  )
       229           C   tau( 229) = (  0.2851381  0.7384701  0.3791835  )
       230           C   tau( 230) = (  0.7851381  0.7384701  0.3791835  )
       231           C   tau( 231) = (  0.2148619  0.2615299  0.6208165  )
       232           C   tau( 232) = (  0.7148619  0.2615299  0.6208165  )
       233           C   tau( 233) = (  0.0141043  0.2244156  0.2032745  )
       234           C   tau( 234) = (  0.5141043  0.2244156  0.2032745  )
       235           C   tau( 235) = (  0.4858957  0.7755844  0.7967255  )
       236           C   tau( 236) = (  0.9858957  0.7755844  0.7967255  )
       237           C   tau( 237) = (  0.2358957  0.7244156  0.2967255  )
       238           C   tau( 238) = (  0.7358957  0.7244156  0.2967255  )
       239           C   tau( 239) = (  0.2641043  0.2755844  0.7032745  )
       240           C   tau( 240) = (  0.7641043  0.2755844  0.7032745  )

     number of k points=     8  Gaussian smearing, width (Ry)=  0.0037
                       cart. coord. in units 2pi/alat
        k(    1) = (   0.0000000   0.0000000   0.0000000), wk =   0.2500000
        k(    2) = (  -0.0032832   0.0000000  -0.5398290), wk =   0.2500000
        k(    3) = (   0.0000000  -0.6946606   0.0000000), wk =   0.2500000
        k(    4) = (  -0.0032832  -0.6946606  -0.5398290), wk =   0.2500000
        k(    5) = (  -0.5001811   0.0000000  -0.0282620), wk =   0.2500000
        k(    6) = (  -0.5034643   0.0000000  -0.5680910), wk =   0.2500000
        k(    7) = (  -0.5001811  -0.6946606  -0.0282620), wk =   0.2500000
        k(    8) = (  -0.5034643  -0.6946606  -0.5680910), wk =   0.2500000

                       cryst. coord.
        k(    1) = (   0.0000000   0.0000000   0.0000000), wk =   0.2500000
        k(    2) = (   0.0000000   0.0000000  -0.5000000), wk =   0.2500000
        k(    3) = (   0.0000000  -0.5000000   0.0000000), wk =   0.2500000
        k(    4) = (   0.0000000  -0.5000000  -0.5000000), wk =   0.2500000
        k(    5) = (  -0.5000000   0.0000000   0.0000000), wk =   0.2500000
        k(    6) = (  -0.5000000   0.0000000  -0.5000000), wk =   0.2500000
        k(    7) = (  -0.5000000  -0.5000000   0.0000000), wk =   0.2500000
        k(    8) = (  -0.5000000  -0.5000000  -0.5000000), wk =   0.2500000

     Dense  grid:  7301927 G-vectors     FFT dimensions: ( 288, 200, 256)

     Smooth grid:  1405271 G-vectors     FFT dimensions: ( 160, 120, 150)

     Dynamical RAM for                 wfc:     141.39 MB

     Dynamical RAM for     wfc (w. buffer):    1272.47 MB

     Dynamical RAM for           str. fact:      55.71 MB

     Dynamical RAM for           local pot:       0.00 MB

     Dynamical RAM for          nlocal pot:     463.69 MB

     Dynamical RAM for                qrad:      31.54 MB

     Dynamical RAM for          rho,v,vnew:      83.97 MB

     Dynamical RAM for               rhoin:      27.99 MB

     Dynamical RAM for            rho*nmix:     222.84 MB

     Dynamical RAM for           G-vectors:      53.57 MB

     Dynamical RAM for          h,s,v(r/c):      32.61 MB

     Dynamical RAM for          <psi|beta>:       8.91 MB

     Dynamical RAM for                 psi:     565.54 MB

     Dynamical RAM for                hpsi:     565.54 MB

     Dynamical RAM for                spsi:     565.54 MB

     Dynamical RAM for      wfcinit/wfcrot:     460.63 MB

     Dynamical RAM for           addusdens:    3147.57 MB

     Estimated static dynamical RAM per process >       2.30 GB

     Estimated max dynamical RAM per process >       5.37 GB

     Estimated total dynamical RAM >      42.96 GB

     Initial potential from superposition of free atoms

     starting charge  703.99412, renormalised to  704.00000
     Starting wfcs are  672 randomized atomic wfcs

     total cpu time spent up to now is      315.9 secs

     Self-consistent Calculation

     iteration #  1     ecut=    75.00 Ry     beta= 0.70
     Davidson diagonalization with overlap
     ethr =  1.00E-02,  avg # of iterations =  2.0

     total cpu time spent up to now is     1036.1 secs

     total energy              =   -2069.35554084 Ry
     Harris-Foulkes estimate   =   -2085.91374433 Ry
     estimated scf accuracy    <      26.80219883 Ry

     iteration #  2     ecut=    75.00 Ry     beta= 0.70
     Davidson diagonalization with overlap
     ethr =  3.81E-03,  avg # of iterations =  4.2

     total cpu time spent up to now is     1698.3 secs

     total energy              =   -2073.59485648 Ry
     Harris-Foulkes estimate   =   -2078.77878074 Ry
     estimated scf accuracy    <       8.93442066 Ry

     iteration #  3     ecut=    75.00 Ry     beta= 0.70
     Davidson diagonalization with overlap
     ethr =  1.27E-03,  avg # of iterations =  3.0

     total cpu time spent up to now is     2262.3 secs

     total energy              =   -2075.57125161 Ry
     Harris-Foulkes estimate   =   -2076.73647461 Ry
     estimated scf accuracy    <       2.32216100 Ry

     iteration #  4     ecut=    75.00 Ry     beta= 0.70
     Davidson diagonalization with overlap
     ethr =  3.30E-04,  avg # of iterations =  4.6

     total cpu time spent up to now is     2797.5 secs

     total energy              =   -2076.08729619 Ry
     Harris-Foulkes estimate   =   -2076.31100668 Ry
     estimated scf accuracy    <       0.51036356 Ry

     iteration #  5     ecut=    75.00 Ry     beta= 0.70
     Davidson diagonalization with overlap
     ethr =  7.25E-05,  avg # of iterations =  6.2

     total cpu time spent up to now is     3365.8 secs

     total energy              =   -2076.18958827 Ry
     Harris-Foulkes estimate   =   -2076.20235182 Ry
     estimated scf accuracy    <       0.02594693 Ry

     iteration #  6     ecut=    75.00 Ry     beta= 0.70
     Davidson diagonalization with overlap
     ethr =  3.69E-06,  avg # of iterations = 11.4

     total cpu time spent up to now is     4249.6 secs

     total energy              =   -2076.19616112 Ry
     Harris-Foulkes estimate   =   -2076.19791281 Ry
     estimated scf accuracy    <       0.00375136 Ry

     iteration #  7     ecut=    75.00 Ry     beta= 0.70
     Davidson diagonalization with overlap
     ethr =  5.33E-07,  avg # of iterations =  3.9

     total cpu time spent up to now is     4808.3 secs

     total energy              =   -2076.19697557 Ry
     Harris-Foulkes estimate   =   -2076.19743257 Ry
     estimated scf accuracy    <       0.00107472 Ry

     iteration #  8     ecut=    75.00 Ry     beta= 0.70
     Davidson diagonalization with overlap
     ethr =  1.53E-07,  avg # of iterations =  2.0

     total cpu time spent up to now is     5273.4 secs

     total energy              =   -2076.19719457 Ry
     Harris-Foulkes estimate   =   -2076.19722102 Ry
     estimated scf accuracy    <       0.00006101 Ry

     iteration #  9     ecut=    75.00 Ry     beta= 0.70
     Davidson diagonalization with overlap
     ethr =  8.67E-09,  avg # of iterations =  2.0

     total cpu time spent up to now is     5813.6 secs

     total energy              =   -2076.19720798 Ry
     Harris-Foulkes estimate   =   -2076.19722589 Ry
     estimated scf accuracy    <       0.00004637 Ry

     iteration # 10     ecut=    75.00 Ry     beta= 0.70
     Davidson diagonalization with overlap
     ethr =  6.59E-09,  avg # of iterations =  2.0

     total cpu time spent up to now is     6238.1 secs

     total energy              =   -2076.19721696 Ry
     Harris-Foulkes estimate   =   -2076.19721878 Ry
     estimated scf accuracy    <       0.00000503 Ry

     iteration # 11     ecut=    75.00 Ry     beta= 0.70
     Davidson diagonalization with overlap
     ethr =  7.14E-10,  avg # of iterations =  2.0

     total cpu time spent up to now is     6699.2 secs

     total energy              =   -2076.19721818 Ry
     Harris-Foulkes estimate   =   -2076.19721836 Ry
     estimated scf accuracy    <       0.00000065 Ry

     iteration # 12     ecut=    75.00 Ry     beta= 0.70
     Davidson diagonalization with overlap
     ethr =  9.19E-11,  avg # of iterations =  2.0

     total cpu time spent up to now is     7204.2 secs

     total energy              =   -2076.19721833 Ry
     Harris-Foulkes estimate   =   -2076.19721839 Ry
     estimated scf accuracy    <       0.00000017 Ry

     iteration # 13     ecut=    75.00 Ry     beta= 0.70
     Davidson diagonalization with overlap
     ethr =  2.48E-11,  avg # of iterations =  2.0

     total cpu time spent up to now is     7702.2 secs

     total energy              =   -2076.19721837 Ry
     Harris-Foulkes estimate   =   -2076.19721838 Ry
     estimated scf accuracy    <       0.00000003 Ry

     iteration # 14     ecut=    75.00 Ry     beta= 0.70
     Davidson diagonalization with overlap
     ethr =  4.53E-12,  avg # of iterations =  2.0

     total cpu time spent up to now is     8187.3 secs

     End of self-consistent calculation

          k = 0.0000 0.0000 0.0000 (175637 PWs)   bands (ev):

   -19.6454 -19.6446 -19.6440 -19.6207 -19.5639 -19.5631 -19.5626 -19.5150
   -17.3629 -17.3613 -17.3608 -17.3595 -17.3580 -17.3577 -17.3558 -17.3473
   -15.8920 -15.8852 -15.8845 -15.8795 -15.8198 -15.8114 -15.8102 -15.8069
   -14.9717 -14.9421 -14.9409 -14.9394 -14.9385 -14.9372 -14.9238 -14.8951
   -14.7299 -14.6485 -14.6477 -14.6343 -14.6231 -14.6071 -14.6065 -14.5673
   -13.5204 -13.5201 -13.4890 -13.4861 -13.4597 -13.4594 -13.4542 -13.4349
   -12.4409 -12.4342 -12.4277 -12.4270 -12.4116 -12.4044 -12.3819 -12.3815
   -12.3072 -12.2850 -12.2679 -12.2662 -12.2644 -12.2594 -12.2588 -12.2301
   -11.8014 -11.8004 -11.7876 -11.7745 -11.7407 -11.7243 -11.7236 -11.7119
   -11.1868 -11.1858 -11.1769 -11.1696 -11.1531 -11.0960 -11.0952 -11.0902
    -9.5829  -9.5809  -9.5799  -9.5601  -9.5324  -9.5278  -9.5269  -9.5233
    -9.4261  -9.4245  -9.4192  -9.4185  -9.3794  -9.3511  -9.3450  -9.3438
    -8.6621  -8.6491  -8.6235  -8.6168  -8.6161  -8.5707  -8.5695  -8.5634
    -8.5333  -8.5254  -8.5248  -8.5093  -8.4948  -8.4932  -8.4799  -8.4795
    -7.7875  -7.7871  -7.7668  -7.7329  -7.7322  -7.7251  -7.7054  -7.7010
    -7.5602  -7.5321  -7.5310  -7.5110  -7.4664  -7.4648  -7.4638  -7.4424
    -7.2472  -7.2095  -7.1969  -7.1967  -7.0957  -7.0757  -7.0754  -7.0657
    -6.4227  -6.4220  -6.4156  -6.3209  -6.1680  -6.1673  -6.1611  -6.1597
    -6.0183  -6.0174  -5.9723  -5.9437  -5.9214  -5.9208  -5.9089  -5.8836
    -5.8552  -5.7142  -5.7138  -5.7108  -5.5542  -5.5535  -5.5515  -5.5395
    -5.5373  -5.5368  -5.5248  -5.5224  -5.4888  -5.4884  -5.4782  -5.4170
    -5.0759  -5.0616  -5.0562  -5.0114  -4.9950  -4.9944  -4.9480  -4.9472
    -4.7867  -4.7863  -4.7354  -4.6408  -4.6123  -4.6120  -4.5983  -4.5096
    -4.4915  -4.4789  -4.4786  -4.4752  -4.4648  -4.4467  -4.4413  -4.4407
    -4.2465  -4.2241  -4.2238  -4.2193  -4.2168  -4.2056  -4.2043  -4.1954
    -4.1446  -4.1318  -4.1312  -4.1051  -4.0895  -4.0826  -4.0817  -4.0378
    -4.0363  -4.0312  -3.9894  -3.9097  -3.9094  -3.8811  -3.8429  -3.8081
    -3.7715  -3.7674  -3.7656  -3.7206  -3.6538  -3.6307  -3.6271  -3.5835
    -3.5625  -3.5471  -3.5122  -3.4520  -3.4476  -3.4088  -3.4041  -3.3994
    -3.2321  -3.2316  -3.1972  -3.1604  -3.0554  -2.9843  -2.9702  -2.9610
    -2.9605  -2.9227  -2.9226  -2.8404  -2.8301  -2.8069  -2.7992  -2.7835
    -2.7833  -2.7055  -2.7053  -2.6565  -2.6183  -2.5795  -2.5790  -2.4153
    -2.3637  -2.3212  -2.3081  -2.3075  -2.3069  -2.2394  -2.2024  -2.1870
    -2.1867  -2.1859  -2.1809  -2.1627  -2.1521  -2.1520  -2.1098  -2.0954
    -2.0950  -2.0727  -2.0724  -2.0643  -1.9687  -1.8939  -1.8391  -1.8390
    -1.7551  -1.7548  -1.6958  -1.6953  -1.6826  -1.6093  -1.5940  -1.5361
    -1.3328  -1.2984  -1.2437  -1.2350  -1.2348  -1.0012  -0.9657  -0.9656
    -0.7406  -0.6519  -0.6515  -0.5463  -0.5039  -0.4585  -0.4580  -0.3950
    -0.2862  -0.2798  -0.2655  -0.2648  -0.1918  -0.1854  -0.1851  -0.1393
    -0.1372  -0.1174  -0.0945  -0.0544  -0.0085  -0.0084   0.0307   0.0334
     0.0342   0.0376   0.0408   0.0684   0.1800   0.1893   0.1901   0.1934
     0.3117   0.3552   0.3571   0.3682   0.3777   0.4184   0.4191   0.5316
     0.5735   0.6042   0.6069   0.6079   0.6168   0.7321   0.7330   0.8191
     1.0258   1.0271   1.0397   1.0506   1.1843   1.1852   1.2267   1.2366
     4.0618   4.0619   4.1012   4.1356   4.1503   4.1506   4.1557   4.2460
     4.6594   4.7147   4.8574   4.8585   4.9350   4.9356   5.0024   5.0129
     5.1224   5.1445   5.1448   5.2330   5.2665   5.2954   5.2959   5.3664
     5.3820   5.3990   5.4334   5.4387   5.4393   5.5084   5.5229   5.5232
     6.3160   6.3787   6.3870   6.4136   6.5155   6.5317   6.6306   6.7254
     6.7337   6.7679   6.7888   6.7904   6.7921   6.7924   6.8385   6.8461
     6.8469   6.9588   6.9593   6.9617   6.9871   7.0312   7.1685   7.3696
     7.3704   7.4119   7.4128   7.4888   7.6836   7.6840   7.7254   7.7577
     7.7676   7.7683   8.0580   8.0986   8.0989   8.1194

     occupation numbers 
     1.0000   1.0000   1.0000   1.0000   1.0000   1.0000   1.0000   1.0000
     1.0000   1.0000   1.0000   1.0000   1.0000   1.0000   1.0000   1.0000
     1.0000   1.0000   1.0000   1.0000   1.0000   1.0000   1.0000   1.0000
     1.0000   1.0000   1.0000   1.0000   1.0000   1.0000   1.0000   1.0000
     1.0000   1.0000   1.0000   1.0000   1.0000   1.0000   1.0000   1.0000
     1.0000   1.0000   1.0000   1.0000   1.0000   1.0000   1.0000   1.0000
     1.0000   1.0000   1.0000   1.0000   1.0000   1.0000   1.0000   1.0000
     1.0000   1.0000   1.0000   1.0000   1.0000   1.0000   1.0000   1.0000
     1.0000   1.0000   1.0000   1.0000   1.0000   1.0000   1.0000   1.0000
     1.0000   1.0000   1.0000   1.0000   1.0000   1.0000   1.0000   1.0000
     1.0000   1.0000   1.0000   1.0000   1.0000   1.0000   1.0000   1.0000
     1.0000   1.0000   1.0000   1.0000   1.0000   1.0000   1.0000   1.0000
     1.0000   1.0000   1.0000   1.0000   1.0000   1.0000   1.0000   1.0000
     1.0000   1.0000   1.0000   1.0000   1.0000   1.0000   1.0000   1.0000
     1.0000   1.0000   1.0000   1.0000   1.0000   1.0000   1.0000   1.0000
     1.0000   1.0000   1.0000   1.0000   1.0000   1.0000   1.0000   1.0000
     1.0000   1.0000   1.0000   1.0000   1.0000   1.0000   1.0000   1.0000
     1.0000   1.0000   1.0000   1.0000   1.0000   1.0000   1.0000   1.0000
     1.0000   1.0000   1.0000   1.0000   1.0000   1.0000   1.0000   1.0000
     1.0000   1.0000   1.0000   1.0000   1.0000   1.0000   1.0000   1.0000
     1.0000   1.0000   1.0000   1.0000   1.0000   1.0000   1.0000   1.0000
     1.0000   1.0000   1.0000   1.0000   1.0000   1.0000   1.0000   1.0000
     1.0000   1.0000   1.0000   1.0000   1.0000   1.0000   1.0000   1.0000
     1.0000   1.0000   1.0000   1.0000   1.0000   1.0000   1.0000   1.0000
     1.0000   1.0000   1.0000   1.0000   1.0000   1.0000   1.0000   1.0000
     1.0000   1.0000   1.0000   1.0000   1.0000   1.0000   1.0000   1.0000
     1.0000   1.0000   1.0000   1.0000   1.0000   1.0000   1.0000   1.0000
     1.0000   1.0000   1.0000   1.0000   1.0000   1.0000   1.0000   1.0000
     1.0000   1.0000   1.0000   1.0000   1.0000   1.0000   1.0000   1.0000
     1.0000   1.0000   1.0000   1.0000   1.0000   1.0000   1.0000   1.0000
     1.0000   1.0000   1.0000   1.0000   1.0000   1.0000   1.0000   1.0000
     1.0000   1.0000   1.0000   1.0000   1.0000   1.0000   1.0000   1.0000
     1.0000   1.0000   1.0000   1.0000   1.0000   1.0000   1.0000   1.0000
     1.0000   1.0000   1.0000   1.0000   1.0000   1.0000   1.0000   1.0000
     1.0000   1.0000   1.0000   1.0000   1.0000   1.0000   1.0000   1.0000
     1.0000   1.0000   1.0000   1.0000   1.0000   1.0000   1.0000   1.0000
     1.0000   1.0000   1.0000   1.0000   1.0000   1.0000   1.0000   1.0000
     1.0000   1.0000   1.0000   1.0000   1.0000   1.0000   1.0000   1.0000
     1.0000   1.0000   1.0000   1.0000   1.0000   1.0000   1.0000   1.0000
     1.0000   1.0000   1.0000   1.0000   1.0000   1.0000   1.0000   1.0000
     1.0000   1.0000   1.0000   1.0000   1.0000   1.0000   1.0000   1.0000
     1.0000   1.0000   1.0000   1.0000   1.0000   1.0000   1.0000   1.0000
     1.0000   1.0000   1.0000   1.0000   1.0000   1.0000   1.0000   1.0000
     1.0000   1.0000   1.0000   1.0000   1.0000   1.0000   1.0000   1.0000
     0.0000   0.0000   0.0000   0.0000   0.0000   0.0000   0.0000   0.0000
     0.0000   0.0000   0.0000   0.0000   0.0000   0.0000   0.0000   0.0000
     0.0000   0.0000   0.0000   0.0000   0.0000   0.0000   0.0000   0.0000
     0.0000   0.0000   0.0000   0.0000   0.0000   0.0000   0.0000   0.0000
     0.0000   0.0000   0.0000   0.0000   0.0000   0.0000   0.0000   0.0000
     0.0000   0.0000   0.0000   0.0000   0.0000   0.0000   0.0000   0.0000
     0.0000   0.0000   0.0000   0.0000   0.0000   0.0000   0.0000   0.0000
     0.0000   0.0000   0.0000   0.0000   0.0000   0.0000   0.0000   0.0000
     0.0000   0.0000   0.0000   0.0000   0.0000   0.0000

          k =-0.0033 0.0000-0.5398 (175690 PWs)   bands (ev):

   -19.6454 -19.6446 -19.6440 -19.6207 -19.5639 -19.5631 -19.5625 -19.5150
   -17.3629 -17.3613 -17.3606 -17.3596 -17.3581 -17.3573 -17.3559 -17.3474
   -15.8877 -15.8860 -15.8853 -15.8823 -15.8145 -15.8138 -15.8125 -15.8075
   -14.9622 -14.9602 -14.9524 -14.9519 -14.9195 -14.9184 -14.9143 -14.9119
   -14.6914 -14.6788 -14.6782 -14.6319 -14.6086 -14.5931 -14.5919 -14.5884
   -13.5357 -13.4894 -13.4873 -13.4865 -13.4848 -13.4497 -13.4457 -13.4452
   -12.4366 -12.4359 -12.4276 -12.4262 -12.4084 -12.4081 -12.3875 -12.3774
   -12.2908 -12.2879 -12.2874 -12.2844 -12.2595 -12.2587 -12.2383 -12.2309
   -11.8363 -11.7685 -11.7633 -11.7623 -11.7499 -11.7416 -11.7410 -11.7023
   -11.2260 -11.1804 -11.1796 -11.1273 -11.1163 -11.1156 -11.1111 -11.0993
    -9.5796  -9.5727  -9.5713  -9.5558  -9.5500  -9.5294  -9.5287  -9.5270
    -9.4342  -9.4194  -9.4184  -9.4123  -9.3645  -9.3618  -9.3611  -9.3375
    -8.6546  -8.6535  -8.6163  -8.6130  -8.5962  -8.5951  -8.5705  -8.5676
    -8.5290  -8.5175  -8.5161  -8.5158  -8.5094  -8.5015  -8.5011  -8.4510
    -7.7999  -7.7729  -7.7493  -7.7489  -7.7375  -7.7313  -7.7037  -7.7034
    -7.5403  -7.5337  -7.5328  -7.5126  -7.4806  -7.4626  -7.4535  -7.4525
    -7.2318  -7.2270  -7.2266  -7.1602  -7.0968  -7.0790  -7.0787  -7.0535
    -6.4619  -6.3816  -6.3752  -6.3745  -6.1873  -6.1514  -6.1507  -6.1225
    -6.0474  -5.9883  -5.9545  -5.9534  -5.9514  -5.9244  -5.9077  -5.9073
    -5.7830  -5.7829  -5.7222  -5.7064  -5.5574  -5.5525  -5.5493  -5.5489
    -5.5445  -5.5305  -5.5300  -5.5264  -5.5088  -5.4650  -5.4455  -5.4450
    -5.0536  -5.0527  -5.0359  -5.0353  -5.0134  -4.9772  -4.9639  -4.9581
    -4.8249  -4.6904  -4.6788  -4.6783  -4.6711  -4.5682  -4.5680  -4.5419
    -4.5240  -4.4765  -4.4760  -4.4616  -4.4603  -4.4592  -4.4589  -4.4380
    -4.2557  -4.2550  -4.2507  -4.2230  -4.2014  -4.1960  -4.1951  -4.1863
    -4.1445  -4.1435  -4.1326  -4.1322  -4.1014  -4.0735  -4.0449  -4.0447
    -3.9990  -3.9671  -3.9585  -3.9580  -3.8989  -3.8945  -3.8188  -3.8176
    -3.8018  -3.7586  -3.7515  -3.7491  -3.6826  -3.6337  -3.6081  -3.6033
    -3.5355  -3.5325  -3.4838  -3.4743  -3.4705  -3.4592  -3.4073  -3.3568
    -3.2644  -3.1887  -3.1880  -3.1709  -3.0223  -2.9828  -2.9824  -2.9598
    -2.9345  -2.9343  -2.9100  -2.9048  -2.8624  -2.8181  -2.8179  -2.7939
    -2.7571  -2.6723  -2.6722  -2.6672  -2.6302  -2.5788  -2.5784  -2.4174
    -2.3495  -2.3491  -2.2964  -2.2846  -2.2555  -2.2551  -2.2255  -2.2251
    -2.2025  -2.1994  -2.1993  -2.1392  -2.1386  -2.1385  -2.1132  -2.1128
    -2.1017  -2.0780  -2.0563  -2.0297  -1.9217  -1.9211  -1.9154  -1.8339
    -1.7723  -1.7250  -1.7168  -1.6571  -1.6401  -1.6401  -1.5547  -1.5544
    -1.3628  -1.3625  -1.2399  -1.1282  -1.1278  -1.0940  -1.0940  -0.8774
    -0.7867  -0.6061  -0.6034  -0.6032  -0.5327  -0.4418  -0.4417  -0.3804
    -0.2821  -0.2394  -0.2382  -0.2254  -0.2064  -0.1986  -0.1879  -0.1862
    -0.1660  -0.1346  -0.1338  -0.0903   0.0193   0.0203   0.0216   0.0247
     0.0333   0.0536   0.0540   0.0642   0.1819   0.1840   0.1896   0.1932
     0.3264   0.3300   0.3452   0.3469   0.4334   0.4479   0.4491   0.4599
     0.5651   0.5811   0.5824   0.6349   0.6494   0.7563   0.7573   0.7864
     1.0190   1.0217   1.0512   1.0519   1.1694   1.2012   1.2254   1.2260
     4.0204   4.1066   4.1124   4.1129   4.1174   4.1889   4.2005   4.2006
     4.7150   4.7159   4.8386   4.8562   4.9215   4.9943   5.0126   5.0131
     5.0613   5.1328   5.1337   5.1945   5.2719   5.2772   5.2775   5.3319
     5.3717   5.4287   5.4291   5.4703   5.4879   5.4883   5.4914   5.5957
     6.3118   6.4218   6.4271   6.4484   6.4931   6.4966   6.6664   6.6722
     6.6989   6.7151   6.7156   6.7497   6.7564   6.7582   6.8667   6.8773
     6.8803   6.8888   6.9278   7.1010   7.1623   7.1628   7.1806   7.1894
     7.1896   7.3908   7.4547   7.5183   7.5764   7.7044   7.7377   7.8624
     7.8868   7.8883   7.8894   8.0236   8.0247   8.1272

     occupation numbers 
     1.0000   1.0000   1.0000   1.0000   1.0000   1.0000   1.0000   1.0000
     1.0000   1.0000   1.0000   1.0000   1.0000   1.0000   1.0000   1.0000
     1.0000   1.0000   1.0000   1.0000   1.0000   1.0000   1.0000   1.0000
     1.0000   1.0000   1.0000   1.0000   1.0000   1.0000   1.0000   1.0000
     1.0000   1.0000   1.0000   1.0000   1.0000   1.0000   1.0000   1.0000
     1.0000   1.0000   1.0000   1.0000   1.0000   1.0000   1.0000   1.0000
     1.0000   1.0000   1.0000   1.0000   1.0000   1.0000   1.0000   1.0000
     1.0000   1.0000   1.0000   1.0000   1.0000   1.0000   1.0000   1.0000
     1.0000   1.0000   1.0000   1.0000   1.0000   1.0000   1.0000   1.0000
     1.0000   1.0000   1.0000   1.0000   1.0000   1.0000   1.0000   1.0000
     1.0000   1.0000   1.0000   1.0000   1.0000   1.0000   1.0000   1.0000
     1.0000   1.0000   1.0000   1.0000   1.0000   1.0000   1.0000   1.0000
[...]
     0.0000   0.0000   0.0000   0.0000   0.0000   0.0000   0.0000   0.0000
     0.0000   0.0000   0.0000   0.0000   0.0000   0.0000   0.0000   0.0000
     0.0000   0.0000   0.0000   0.0000   0.0000   0.0000

          k =-0.5002-0.6947-0.0283 (175628 PWs)   bands (ev):

   -19.6453 -19.6446 -19.6440 -19.6206 -19.5639 -19.5631 -19.5626 -19.5151
   -17.3622 -17.3616 -17.3612 -17.3595 -17.3579 -17.3573 -17.3560 -17.3475
   -15.8871 -15.8859 -15.8853 -15.8848 -15.8130 -15.8123 -15.8119 -15.8100
   -14.9551 -14.9530 -14.9521 -14.9515 -14.9212 -14.9193 -14.9185 -14.9179
   -14.6768 -14.6740 -14.6739 -14.6726 -14.5945 -14.5918 -14.5916 -14.5902
   -13.4970 -13.4949 -13.4945 -13.4931 -13.4631 -13.4612 -13.4608 -13.4594
   -12.4336 -12.4325 -12.4315 -12.4312 -12.3952 -12.3944 -12.3933 -12.3931
   -12.2920 -12.2896 -12.2888 -12.2882 -12.2480 -12.2458 -12.2450 -12.2445
   -11.7873 -11.7846 -11.7842 -11.7833 -11.7360 -11.7335 -11.7330 -11.7320
   -11.1582 -11.1555 -11.1547 -11.1538 -11.1333 -11.1310 -11.1302 -11.1292
    -9.5756  -9.5735  -9.5725  -9.5721  -9.5007  -9.4996  -9.4987  -9.4985
    -9.4637  -9.4615  -9.4605  -9.4602  -9.3511  -9.3489  -9.3480  -9.3478
    -8.6266  -8.6236  -8.6230  -8.6219  -8.5962  -8.5939  -8.5936  -8.5926
    -8.5161  -8.5142  -8.5137  -8.5133  -8.4988  -8.4969  -8.4966  -8.4959
    -7.7635  -7.7614  -7.7610  -7.7594  -7.7062  -7.7042  -7.7038  -7.7021
    -7.5230  -7.5193  -7.5183  -7.5178  -7.4905  -7.4879  -7.4870  -7.4864
    -7.1810  -7.1802  -7.1799  -7.1791  -7.1197  -7.1188  -7.1186  -7.1174
    -6.3770  -6.3760  -6.3752  -6.3748  -6.1927  -6.1910  -6.1901  -6.1896
    -6.0035  -6.0018  -6.0010  -6.0006  -5.9343  -5.9328  -5.9322  -5.9318
    -5.6449  -5.6439  -5.6430  -5.6428  -5.5505  -5.5497  -5.5490  -5.5486
    -5.5401  -5.5397  -5.5388  -5.5386  -5.5088  -5.5076  -5.5067  -5.5064
    -5.0805  -5.0798  -5.0788  -5.0786  -4.9377  -4.9365  -4.9358  -4.9356
    -4.7278  -4.7272  -4.7268  -4.7258  -4.5833  -4.5825  -4.5824  -4.5816
    -4.5159  -4.5152  -4.5140  -4.5139  -4.4503  -4.4488  -4.4478  -4.4477
    -4.2703  -4.2693  -4.2688  -4.2681  -4.2112  -4.2109  -4.2106  -4.2095
    -4.1176  -4.1168  -4.1162  -4.1159  -4.0402  -4.0389  -4.0386  -4.0371
    -3.9911  -3.9904  -3.9901  -3.9894  -3.8433  -3.8426  -3.8423  -3.8403
    -3.7829  -3.7823  -3.7817  -3.7781  -3.6257  -3.6250  -3.6244  -3.6162
    -3.5008  -3.4999  -3.4994  -3.4927  -3.4195  -3.4184  -3.4177  -3.4111
    -3.2154  -3.2132  -3.2129  -3.2118  -2.9674  -2.9668  -2.9655  -2.9649
    -2.9302  -2.9295  -2.9289  -2.9287  -2.8070  -2.8061  -2.8054  -2.8047
    -2.7317  -2.7307  -2.7306  -2.7302  -2.5352  -2.5337  -2.5335  -2.5326
    -2.3209  -2.3207  -2.3199  -2.3195  -2.2018  -2.2013  -2.2006  -2.2004
    -2.1791  -2.1789  -2.1783  -2.1780  -2.1609  -2.1605  -2.1603  -2.1601
    -2.0858  -2.0851  -2.0839  -2.0838  -1.8957  -1.8939  -1.8936  -1.8925
    -1.7027  -1.7015  -1.7008  -1.7001  -1.6114  -1.6102  -1.6094  -1.6089
    -1.2535  -1.2515  -1.2513  -1.2498  -1.0754  -1.0735  -1.0732  -1.0717
    -0.6616  -0.6599  -0.6596  -0.6583  -0.4550  -0.4539  -0.4535  -0.4523
    -0.2539  -0.2534  -0.2529  -0.2522  -0.1893  -0.1884  -0.1875  -0.1866
    -0.1028  -0.1022  -0.1016  -0.0990   0.0007   0.0009   0.0026   0.0038
     0.0462   0.0465   0.0471   0.0487   0.1852   0.1854   0.1860   0.1901
     0.3387   0.3394   0.3403   0.3417   0.4398   0.4403   0.4406   0.4416
     0.5900   0.5921   0.5925   0.5934   0.7190   0.7223   0.7225   0.7238
     1.1114   1.1137   1.1145   1.1150   1.1523   1.1549   1.1558   1.1562
     4.1027   4.1049   4.1050   4.1064   4.1509   4.1531   4.1533   4.1547
     4.7684   4.7713   4.7720   4.7729   4.9878   4.9896   4.9906   4.9910
     5.1683   5.1696   5.1701   5.1711   5.3171   5.3188   5.3197   5.3203
     5.3672   5.3693   5.3698   5.3704   5.5070   5.5092   5.5094   5.5108
     6.3928   6.4071   6.4078   6.4081   6.6207   6.6276   6.6281   6.6283
     6.7401   6.7440   6.7443   6.7449   6.8127   6.8140   6.8144   6.8148
     6.8546   6.8612   6.8624   6.8627   7.1616   7.1621   7.1630   7.1637
     7.4419   7.4434   7.4440   7.4452   7.6808   7.6812   7.6815   7.6831
     8.0183   8.0189   8.0194   8.0196   8.1481   8.1489

     occupation numbers 
     1.0000   1.0000   1.0000   1.0000   1.0000   1.0000   1.0000   1.0000
     1.0000   1.0000   1.0000   1.0000   1.0000   1.0000   1.0000   1.0000
     1.0000   1.0000   1.0000   1.0000   1.0000   1.0000   1.0000   1.0000
     1.0000   1.0000   1.0000   1.0000   1.0000   1.0000   1.0000   1.0000
     1.0000   1.0000   1.0000   1.0000   1.0000   1.0000   1.0000   1.0000
     1.0000   1.0000   1.0000   1.0000   1.0000   1.0000   1.0000   1.0000
     1.0000   1.0000   1.0000   1.0000   1.0000   1.0000   1.0000   1.0000
     1.0000   1.0000   1.0000   1.0000   1.0000   1.0000   1.0000   1.0000
     1.0000   1.0000   1.0000   1.0000   1.0000   1.0000   1.0000   1.0000
     1.0000   1.0000   1.0000   1.0000   1.0000   1.0000   1.0000   1.0000
     1.0000   1.0000   1.0000   1.0000   1.0000   1.0000   1.0000   1.0000
     1.0000   1.0000   1.0000   1.0000   1.0000   1.0000   1.0000   1.0000
     1.0000   1.0000   1.0000   1.0000   1.0000   1.0000   1.0000   1.0000
     1.0000   1.0000   1.0000   1.0000   1.0000   1.0000   1.0000   1.0000
     1.0000   1.0000   1.0000   1.0000   1.0000   1.0000   1.0000   1.0000
     1.0000   1.0000   1.0000   1.0000   1.0000   1.0000   1.0000   1.0000
     1.0000   1.0000   1.0000   1.0000   1.0000   1.0000   1.0000   1.0000
     1.0000   1.0000   1.0000   1.0000   1.0000   1.0000   1.0000   1.0000
     1.0000   1.0000   1.0000   1.0000   1.0000   1.0000   1.0000   1.0000
     1.0000   1.0000   1.0000   1.0000   1.0000   1.0000   1.0000   1.0000
     1.0000   1.0000   1.0000   1.0000   1.0000   1.0000   1.0000   1.0000
     1.0000   1.0000   1.0000   1.0000   1.0000   1.0000   1.0000   1.0000
     1.0000   1.0000   1.0000   1.0000   1.0000   1.0000   1.0000   1.0000
     1.0000   1.0000   1.0000   1.0000   1.0000   1.0000   1.0000   1.0000
     1.0000   1.0000   1.0000   1.0000   1.0000   1.0000   1.0000   1.0000
     1.0000   1.0000   1.0000   1.0000   1.0000   1.0000   1.0000   1.0000
     1.0000   1.0000   1.0000   1.0000   1.0000   1.0000   1.0000   1.0000
     1.0000   1.0000   1.0000   1.0000   1.0000   1.0000   1.0000   1.0000
     1.0000   1.0000   1.0000   1.0000   1.0000   1.0000   1.0000   1.0000
     1.0000   1.0000   1.0000   1.0000   1.0000   1.0000   1.0000   1.0000
     1.0000   1.0000   1.0000   1.0000   1.0000   1.0000   1.0000   1.0000
     1.0000   1.0000   1.0000   1.0000   1.0000   1.0000   1.0000   1.0000
     1.0000   1.0000   1.0000   1.0000   1.0000   1.0000   1.0000   1.0000
     1.0000   1.0000   1.0000   1.0000   1.0000   1.0000   1.0000   1.0000
     1.0000   1.0000   1.0000   1.0000   1.0000   1.0000   1.0000   1.0000
     1.0000   1.0000   1.0000   1.0000   1.0000   1.0000   1.0000   1.0000
     1.0000   1.0000   1.0000   1.0000   1.0000   1.0000   1.0000   1.0000
     1.0000   1.0000   1.0000   1.0000   1.0000   1.0000   1.0000   1.0000
     1.0000   1.0000   1.0000   1.0000   1.0000   1.0000   1.0000   1.0000
     1.0000   1.0000   1.0000   1.0000   1.0000   1.0000   1.0000   1.0000
     1.0000   1.0000   1.0000   1.0000   1.0000   1.0000   1.0000   1.0000
     1.0000   1.0000   1.0000   1.0000   1.0000   1.0000   1.0000   1.0000
     1.0000   1.0000   1.0000   1.0000   1.0000   1.0000   1.0000   1.0000
     1.0000   1.0000   1.0000   1.0000   1.0000   1.0000   1.0000   1.0000
     0.0000   0.0000   0.0000   0.0000   0.0000   0.0000   0.0000   0.0000
     0.0000   0.0000   0.0000   0.0000   0.0000   0.0000   0.0000   0.0000
     0.0000   0.0000   0.0000   0.0000   0.0000   0.0000   0.0000   0.0000
     0.0000   0.0000   0.0000   0.0000   0.0000   0.0000   0.0000   0.0000
     0.0000   0.0000   0.0000   0.0000   0.0000   0.0000   0.0000   0.0000
     0.0000   0.0000   0.0000   0.0000   0.0000   0.0000   0.0000   0.0000
     0.0000   0.0000   0.0000   0.0000   0.0000   0.0000   0.0000   0.0000
     0.0000   0.0000   0.0000   0.0000   0.0000   0.0000   0.0000   0.0000
     0.0000   0.0000   0.0000   0.0000   0.0000   0.0000

          k =-0.5035-0.6947-0.5681 (175660 PWs)   bands (ev):

   -19.6453 -19.6446 -19.6440 -19.6206 -19.5639 -19.5631 -19.5626 -19.5151
   -17.3622 -17.3616 -17.3612 -17.3595 -17.3579 -17.3573 -17.3561 -17.3475
   -15.8868 -15.8858 -15.8851 -15.8846 -15.8132 -15.8125 -15.8121 -15.8102
   -14.9567 -14.9546 -14.9538 -14.9531 -14.9197 -14.9177 -14.9171 -14.9164
   -14.6744 -14.6717 -14.6713 -14.6701 -14.5969 -14.5943 -14.5937 -14.5925
   -13.4970 -13.4950 -13.4945 -13.4932 -13.4632 -13.4613 -13.4608 -13.4594
   -12.4336 -12.4326 -12.4315 -12.4313 -12.3950 -12.3943 -12.3931 -12.3930
   -12.2897 -12.2871 -12.2865 -12.2857 -12.2501 -12.2479 -12.2473 -12.2466
   -11.7865 -11.7839 -11.7833 -11.7825 -11.7365 -11.7341 -11.7334 -11.7326
   -11.1643 -11.1616 -11.1610 -11.1600 -11.1275 -11.1251 -11.1245 -11.1235
    -9.5771  -9.5750  -9.5740  -9.5736  -9.4974  -9.4963  -9.4953  -9.4950
    -9.4659  -9.4635  -9.4626  -9.4626  -9.3510  -9.3486  -9.3477  -9.3475
    -8.6249  -8.6219  -8.6216  -8.6204  -8.5966  -8.5939  -8.5936  -8.5923
    -8.5154  -8.5135  -8.5133  -8.5126  -8.5000  -8.4981  -8.4978  -8.4971
    -7.7662  -7.7642  -7.7637  -7.7621  -7.7045  -7.7024  -7.7021  -7.7004
    -7.5252  -7.5214  -7.5209  -7.5198  -7.4903  -7.4870  -7.4866  -7.4854
    -7.1834  -7.1826  -7.1819  -7.1810  -7.1158  -7.1148  -7.1141  -7.1129
    -6.3721  -6.3708  -6.3699  -6.3696  -6.1990  -6.1973  -6.1963  -6.1961
    -5.9957  -5.9945  -5.9937  -5.9934  -5.9389  -5.9379  -5.9371  -5.9369
    -5.6422  -5.6416  -5.6407  -5.6404  -5.5547  -5.5532  -5.5529  -5.5528
    -5.5402  -5.5391  -5.5383  -5.5378  -5.5097  -5.5096  -5.5088  -5.5084
    -5.0899  -5.0892  -5.0884  -5.0880  -4.9344  -4.9333  -4.9326  -4.9323
    -4.7168  -4.7161  -4.7152  -4.7149  -4.5980  -4.5974  -4.5967  -4.5965
    -4.5001  -4.4999  -4.4990  -4.4985  -4.4430  -4.4419  -4.4410  -4.4408
    -4.2798  -4.2793  -4.2791  -4.2779  -4.2085  -4.2077  -4.2073  -4.2063
    -4.1293  -4.1288  -4.1282  -4.1277  -4.0476  -4.0469  -4.0466  -4.0453
    -3.9789  -3.9782  -3.9774  -3.9770  -3.8383  -3.8379  -3.8376  -3.8375
    -3.7659  -3.7647  -3.7641  -3.7599  -3.6357  -3.6348  -3.6346  -3.6255
    -3.4966  -3.4957  -3.4953  -3.4887  -3.4347  -3.4341  -3.4332  -3.4248
    -3.2240  -3.2219  -3.2214  -3.2204  -2.9622  -2.9615  -2.9604  -2.9599
    -2.9199  -2.9186  -2.9179  -2.9174  -2.8004  -2.7998  -2.7992  -2.7987
    -2.7522  -2.7518  -2.7517  -2.7513  -2.5253  -2.5238  -2.5235  -2.5228
    -2.3199  -2.3196  -2.3189  -2.3186  -2.2068  -2.2065  -2.2058  -2.2051
    -2.1836  -2.1828  -2.1819  -2.1814  -2.1510  -2.1500  -2.1499  -2.1492
    -2.0933  -2.0919  -2.0916  -2.0909  -1.8987  -1.8970  -1.8966  -1.8957
    -1.6960  -1.6946  -1.6942  -1.6933  -1.6071  -1.6058  -1.6054  -1.6045
    -1.2550  -1.2531  -1.2528  -1.2513  -1.0756  -1.0736  -1.0733  -1.0718
    -0.6742  -0.6724  -0.6720  -0.6709  -0.4350  -0.4341  -0.4339  -0.4327
    -0.2555  -0.2552  -0.2545  -0.2530  -0.2106  -0.2097  -0.2090  -0.2086
    -0.1000  -0.0998  -0.0996  -0.0963  -0.0037  -0.0036  -0.0018  -0.0011
     0.0695   0.0698   0.0704   0.0727   0.1796   0.1802   0.1807   0.1852
     0.3434   0.3439   0.3446   0.3457   0.4262   0.4267   0.4274   0.4282
     0.5985   0.6009   0.6012   0.6022   0.7182   0.7213   0.7219   0.7230
     1.1148   1.1170   1.1180   1.1183   1.1470   1.1492   1.1504   1.1505
     4.0958   4.0976   4.0984   4.0993   4.1586   4.1603   4.1612   4.1621
     4.7757   4.7787   4.7793   4.7803   4.9967   4.9991   4.9996   5.0003
     5.1494   5.1511   5.1511   5.1522   5.2960   5.2980   5.2985   5.2991
     5.3797   5.3812   5.3815   5.3823   5.5197   5.5215   5.5221   5.5232
     6.3871   6.4013   6.4020   6.4023   6.6323   6.6392   6.6400   6.6402
     6.7494   6.7520   6.7526   6.7535   6.8163   6.8226   6.8231   6.8240
     6.9234   6.9261   6.9263   6.9270   7.0133   7.0139   7.0142   7.0151
     7.4348   7.4359   7.4369   7.4374   7.7735   7.7738   7.7740   7.7753
     8.0165   8.0187   8.0187   8.0197   8.1161   8.1168

     occupation numbers 
     1.0000   1.0000   1.0000   1.0000   1.0000   1.0000   1.0000   1.0000
     1.0000   1.0000   1.0000   1.0000   1.0000   1.0000   1.0000   1.0000
     1.0000   1.0000   1.0000   1.0000   1.0000   1.0000   1.0000   1.0000
     1.0000   1.0000   1.0000   1.0000   1.0000   1.0000   1.0000   1.0000
     1.0000   1.0000   1.0000   1.0000   1.0000   1.0000   1.0000   1.0000
     1.0000   1.0000   1.0000   1.0000   1.0000   1.0000   1.0000   1.0000
     1.0000   1.0000   1.0000   1.0000   1.0000   1.0000   1.0000   1.0000
     1.0000   1.0000   1.0000   1.0000   1.0000   1.0000   1.0000   1.0000
     1.0000   1.0000   1.0000   1.0000   1.0000   1.0000   1.0000   1.0000
     1.0000   1.0000   1.0000   1.0000   1.0000   1.0000   1.0000   1.0000
     1.0000   1.0000   1.0000   1.0000   1.0000   1.0000   1.0000   1.0000
     1.0000   1.0000   1.0000   1.0000   1.0000   1.0000   1.0000   1.0000
     1.0000   1.0000   1.0000   1.0000   1.0000   1.0000   1.0000   1.0000
     1.0000   1.0000   1.0000   1.0000   1.0000   1.0000   1.0000   1.0000
     1.0000   1.0000   1.0000   1.0000   1.0000   1.0000   1.0000   1.0000
     1.0000   1.0000   1.0000   1.0000   1.0000   1.0000   1.0000   1.0000
     1.0000   1.0000   1.0000   1.0000   1.0000   1.0000   1.0000   1.0000
     1.0000   1.0000   1.0000   1.0000   1.0000   1.0000   1.0000   1.0000
     1.0000   1.0000   1.0000   1.0000   1.0000   1.0000   1.0000   1.0000
     1.0000   1.0000   1.0000   1.0000   1.0000   1.0000   1.0000   1.0000
     1.0000   1.0000   1.0000   1.0000   1.0000   1.0000   1.0000   1.0000
     1.0000   1.0000   1.0000   1.0000   1.0000   1.0000   1.0000   1.0000
     1.0000   1.0000   1.0000   1.0000   1.0000   1.0000   1.0000   1.0000
     1.0000   1.0000   1.0000   1.0000   1.0000   1.0000   1.0000   1.0000
     1.0000   1.0000   1.0000   1.0000   1.0000   1.0000   1.0000   1.0000
     1.0000   1.0000   1.0000   1.0000   1.0000   1.0000   1.0000   1.0000
     1.0000   1.0000   1.0000   1.0000   1.0000   1.0000   1.0000   1.0000
     1.0000   1.0000   1.0000   1.0000   1.0000   1.0000   1.0000   1.0000
     1.0000   1.0000   1.0000   1.0000   1.0000   1.0000   1.0000   1.0000
     1.0000   1.0000   1.0000   1.0000   1.0000   1.0000   1.0000   1.0000
     1.0000   1.0000   1.0000   1.0000   1.0000   1.0000   1.0000   1.0000
     1.0000   1.0000   1.0000   1.0000   1.0000   1.0000   1.0000   1.0000
     1.0000   1.0000   1.0000   1.0000   1.0000   1.0000   1.0000   1.0000
     1.0000   1.0000   1.0000   1.0000   1.0000   1.0000   1.0000   1.0000
     1.0000   1.0000   1.0000   1.0000   1.0000   1.0000   1.0000   1.0000
     1.0000   1.0000   1.0000   1.0000   1.0000   1.0000   1.0000   1.0000
     1.0000   1.0000   1.0000   1.0000   1.0000   1.0000   1.0000   1.0000
     1.0000   1.0000   1.0000   1.0000   1.0000   1.0000   1.0000   1.0000
     1.0000   1.0000   1.0000   1.0000   1.0000   1.0000   1.0000   1.0000
     1.0000   1.0000   1.0000   1.0000   1.0000   1.0000   1.0000   1.0000
     1.0000   1.0000   1.0000   1.0000   1.0000   1.0000   1.0000   1.0000
     1.0000   1.0000   1.0000   1.0000   1.0000   1.0000   1.0000   1.0000
     1.0000   1.0000   1.0000   1.0000   1.0000   1.0000   1.0000   1.0000
     1.0000   1.0000   1.0000   1.0000   1.0000   1.0000   1.0000   1.0000
     0.0000   0.0000   0.0000   0.0000   0.0000   0.0000   0.0000   0.0000
     0.0000   0.0000   0.0000   0.0000   0.0000   0.0000   0.0000   0.0000
     0.0000   0.0000   0.0000   0.0000   0.0000   0.0000   0.0000   0.0000
     0.0000   0.0000   0.0000   0.0000   0.0000   0.0000   0.0000   0.0000
     0.0000   0.0000   0.0000   0.0000   0.0000   0.0000   0.0000   0.0000
     0.0000   0.0000   0.0000   0.0000   0.0000   0.0000   0.0000   0.0000
     0.0000   0.0000   0.0000   0.0000   0.0000   0.0000   0.0000   0.0000
     0.0000   0.0000   0.0000   0.0000   0.0000   0.0000   0.0000   0.0000
     0.0000   0.0000   0.0000   0.0000   0.0000   0.0000

     the Fermi energy is     3.0225 ev

!    total energy              =   -2076.19721837 Ry
     Harris-Foulkes estimate   =   -2076.19721838 Ry
     estimated scf accuracy    <          6.6E-09 Ry

     The total energy is the sum of the following terms:

     one-electron contribution =   -1730.19198900 Ry
     hartree contribution      =    1112.83599762 Ry
     xc contribution           =    -649.98297706 Ry
     ewald contribution        =    -806.12053297 Ry
     DFT-D3 Dispersion         =      -2.73771697 Ry
     smearing contrib. (-TS)   =      -0.00000000 Ry

     convergence has been achieved in  14 iterations

     Writing output data file ./GGA-D3.save/
 
     init_run     :    295.67s CPU    315.72s WALL (       1 calls)
     electrons    :   7213.52s CPU   7872.45s WALL (       1 calls)

     Called by init_run:
     wfcinit      :    254.01s CPU    267.43s WALL (       1 calls)
     wfcinit:atom :      1.37s CPU      3.22s WALL (       8 calls)
     wfcinit:wfcr :    247.06s CPU    255.97s WALL (       8 calls)
     potinit      :     14.22s CPU     14.73s WALL (       1 calls)
     hinit0       :     19.43s CPU     19.66s WALL (       1 calls)

     Called by electrons:
     c_bands      :   6148.48s CPU   6531.39s WALL (      14 calls)
     sum_band     :    879.72s CPU   1024.25s WALL (      14 calls)
     v_of_rho     :     39.44s CPU     46.89s WALL (      15 calls)
     v_h          :      3.95s CPU      4.96s WALL (      15 calls)
     v_xc         :     35.49s CPU     41.93s WALL (      15 calls)
     newd         :    107.06s CPU    234.38s WALL (      15 calls)
     mix_rho      :      5.25s CPU      6.90s WALL (      14 calls)

     Called by c_bands:
     init_us_2    :     38.96s CPU     40.93s WALL (     232 calls)
     cegterg      :   6027.24s CPU   6400.53s WALL (     112 calls)

     Called by sum_band:
     sum_band:bec :      0.53s CPU      0.54s WALL (     112 calls)
     addusdens    :    131.16s CPU    256.41s WALL (      14 calls)

     Called by *egterg:
     h_psi        :   3456.02s CPU   3588.02s WALL (     515 calls)
     s_psi        :    619.54s CPU    623.29s WALL (     515 calls)
     g_psi        :     13.73s CPU     13.77s WALL (     395 calls)
     cdiaghg      :    675.70s CPU    705.05s WALL (     507 calls)
     cegterg:over :    627.36s CPU    645.04s WALL (     395 calls)
     cegterg:upda :    461.45s CPU    528.36s WALL (     395 calls)
     cegterg:last :    189.74s CPU    194.48s WALL (     112 calls)
     cdiaghg:chol :     21.01s CPU     21.28s WALL (     507 calls)
     cdiaghg:inve :      9.96s CPU     10.01s WALL (     507 calls)
     cdiaghg:para :     91.30s CPU    106.28s WALL (    1014 calls)

     Called by h_psi:
     h_psi:calbec :    627.38s CPU    639.60s WALL (     515 calls)
     vloc_psi     :   2195.39s CPU   2265.45s WALL (     515 calls)
     add_vuspsi   :    616.99s CPU    622.29s WALL (     515 calls)

     General routines
     calbec       :    837.89s CPU    852.59s WALL (     627 calls)
     fft          :     36.47s CPU     41.65s WALL (     193 calls)
     ffts         :      0.65s CPU      0.70s WALL (      29 calls)
     fftw         :   2211.05s CPU   2289.37s WALL (  305342 calls)
     interpolate  :      3.25s CPU      3.45s WALL (      15 calls)
 
     Parallel routines
     fft_scatt_xy :    578.86s CPU    581.04s WALL (  305564 calls)
     fft_scatt_yz :    439.97s CPU    511.41s WALL (  305564 calls)
 
     PWSCF        :      2h 5m CPU      2h17m WALL

 
   This run was terminated on:  13:52: 4  16Jan2020            

=------------------------------------------------------------------------------=
   JOB DONE.
=------------------------------------------------------------------------------=
