
     Program PWSCF v.6.5 starts on 16Jan2020 at 13:42: 7 

     This program is part of the open-source Quantum ESPRESSO suite
     for quantum simulation of materials; please cite
         "P. Giannozzi et al., J. Phys.:Condens. Matter 21 395502 (2009);
         "P. Giannozzi et al., J. Phys.:Condens. Matter 29 465901 (2017);
          URL http://www.quantum-espresso.org", 
     in publications or presentations arising from this work. More details at
     http://www.quantum-espresso.org/quote

     Parallel version (MPI & OpenMP), running on       8 processor cores
     Number of MPI processes:                 8
     Threads/MPI process:                     1

     MPI processes distributed on     1 nodes
     R & G space division:  proc/nbgrp/npool/nimage =       8
     Waiting for input...
     Reading input from standard input

     Current dimensions of program PWSCF are:
     Max number of different atomic species (ntypx) = 10
     Max number of k-points (npk) =  40000
     Max angular momentum in pseudopotentials (lmaxx) =  3

     IMPORTANT: XC functional enforced from input :
     Exchange-correlation= VDW-OBK8
                           (   0   0  23   0   0   0   0)
     Any further DFT definition will be discarded
     Please, verify this is what you really want


     Subspace diagonalization in iterative solution of the eigenvalue problem:
     one sub-group per band group will be used
     scalapack distributed-memory algorithm (size of sub-group:  2*  2 procs)

 
     Parallelization info
     --------------------
     sticks:   dense  smooth     PW     G-vecs:    dense   smooth      PW
     Min        5379    1792    472               905343   174200   23521
     Max        5380    1793    473               905345   174203   23524
     Sum       43037   14341   3779              7242751  1393605  188177
 

     Title: 
     vdW-DF                                                                     


     bravais-lattice index     =            0
     lattice parameter (alat)  =      28.6827  a.u.
     unit-cell volume          =   15884.5855 (a.u.)^3
     number of atoms/cell      =          240
     number of atomic types    =            4
     number of electrons       =       704.00
     number of Kohn-Sham states=          422
     kinetic-energy cutoff     =      75.0000  Ry
     charge density cutoff     =     900.0000  Ry
     convergence threshold     =      1.0E-08
     mixing beta               =       0.7000
     number of iterations used =            8  plain     mixing
     Exchange-correlation= VDW-OBK8
                           (   0   0  23   0   0   0   0)

     celldm(1)=  28.682718  celldm(2)=   0.000000  celldm(3)=   0.000000
     celldm(4)=   0.000000  celldm(5)=   0.000000  celldm(6)=   0.000000

     crystal axes: (cart. coord. in units of alat)
               a(1) = (   0.999998   0.000000   0.001839 )  
               a(2) = (   0.000000   0.730660   0.000000 )  
               a(3) = (  -0.045626   0.000000   0.921215 )  

     reciprocal axes: (cart. coord. in units 2 pi/alat)
               b(1) = (  0.999911  0.000000  0.049524 )  
               b(2) = (  0.000000  1.368626  0.000000 )  
               b(3) = ( -0.001997  0.000000  1.085425 )  


     PseudoPot. # 1 for O  read from file:
     ./o_pbe_v1.2.uspp.F.UPF
     MD5 check sum: 734c27235a0248c51dbae37a1fbe46ec
     Pseudo is Ultrasoft + core correction, Zval =  6.0
     Generated by new atomic code, or converted to UPF format
     Using radial grid of  737 points,  5 beta functions with: 
                l(1) =   0
                l(2) =   0
                l(3) =   1
                l(4) =   1
                l(5) =   2
     Q(r) pseudized with  8 coefficients,  rinner =    0.900   0.900   0.900
                                                       0.900   0.900

     PseudoPot. # 2 for N  read from file:
     ./n_pbe_v1.2.uspp.F.UPF
     MD5 check sum: 95339753478d7afb44899504a8723017
     Pseudo is Ultrasoft + core correction, Zval =  5.0
     Generated by new atomic code, or converted to UPF format
     Using radial grid of  729 points,  4 beta functions with: 
                l(1) =   0
                l(2) =   0
                l(3) =   1
                l(4) =   1
     Q(r) pseudized with  8 coefficients,  rinner =    0.900   0.900   0.900


     PseudoPot. # 3 for H  read from file:
     ./h_pbe_v1.4.uspp.F.UPF
     MD5 check sum: 761ae9a214b05c3daf00ab9f6b793d6f
     Pseudo is Ultrasoft, Zval =  1.0
     Generated by new atomic code, or converted to UPF format
     Using radial grid of  615 points,  2 beta functions with: 
                l(1) =   0
                l(2) =   0
     Q(r) pseudized with  8 coefficients,  rinner =    0.700

     PseudoPot. # 4 for C  read from file:
     ./c_pbe_v1.2.uspp.F.UPF
     MD5 check sum: d1aef80898a10debaa0f26306b886e00
     Pseudo is Ultrasoft + core correction, Zval =  4.0
     Generated by new atomic code, or converted to UPF format
     Using radial grid of  721 points,  4 beta functions with: 
                l(1) =   0
                l(2) =   0
                l(3) =   1
                l(4) =   1
     Q(r) pseudized with  8 coefficients,  rinner =    1.100   1.100   1.100


     atomic species   valence    mass     pseudopotential
        O              6.00    16.00000     O ( 1.00)
        N              5.00    14.00000     N ( 1.00)
        H              1.00     1.00000     H ( 1.00)
        C              4.00    12.00000     C ( 1.00)

     No symmetry found


                                    s                        frac. trans.

      isym =  1     identity                                     

 cryst.   s( 1) = (     1          0          0      )
                  (     0          1          0      )
                  (     0          0          1      )

 cart.    s( 1) = (  1.0000000  0.0000000 -0.0000000 )
                  (  0.0000000  1.0000000  0.0000000 )
                  (  0.0000000  0.0000000  1.0000000 )


   Cartesian axes

     site n.     atom                  positions (alat units)
         1           O   tau(   1) = (   0.2502687   0.2753965   0.0863647  )
         2           O   tau(   2) = (   0.7496090   0.2753965   0.0872832  )
         3           O   tau(   3) = (   0.2047631   0.4552635   0.8357709  )
         4           O   tau(   4) = (   0.7047623   0.4552635   0.8366906  )
         5           O   tau(   5) = (   0.4775758   0.6407265   0.3756235  )
         6           O   tau(   6) = (   0.9775749   0.6407265   0.3765432  )
         7           O   tau(   7) = (  -0.0232028   0.0899335   0.5465109  )
         8           O   tau(   8) = (   0.4767964   0.0899335   0.5474306  )
         9           N   tau(   9) = (   0.1432145   0.1708224   0.0565584  )
        10           N   tau(  10) = (   0.6432137   0.1708224   0.0574781  )
        11           N   tau(  11) = (   0.3111585   0.5598377   0.8655760  )
        12           N   tau(  12) = (   0.8111576   0.5598377   0.8664957  )
        13           N   tau(  13) = (   0.0839720   0.5361523   0.4045088  )
        14           N   tau(  14) = (   0.5839711   0.5361523   0.4054285  )
        15           N   tau(  15) = (   0.3704011   0.1945076   0.5176256  )
        16           N   tau(  16) = (   0.8704002   0.1945076   0.5185453  )
        17           N   tau(  17) = (   0.1158485   0.2937230   0.8866087  )
        18           N   tau(  18) = (   0.6158477   0.2937230   0.8875284  )
        19           N   tau(  19) = (   0.3385245   0.4369370   0.0355257  )
        20           N   tau(  20) = (   0.8385236   0.4369370   0.0364454  )
        21           N   tau(  21) = (   0.0657118   0.6590530   0.4956731  )
        22           N   tau(  22) = (   0.5657110   0.6590530   0.4965929  )
        23           N   tau(  23) = (   0.3886612   0.0716070   0.4264613  )
        24           N   tau(  24) = (   0.8886604   0.0716070   0.4273810  )
        25           H   tau(  25) = (   0.0650260   0.2720029   0.8491185  )
        26           H   tau(  26) = (   0.5650252   0.2720029   0.8500383  )
        27           H   tau(  27) = (   0.3893470   0.4586571   0.0730159  )
        28           H   tau(  28) = (   0.8893462   0.4586571   0.0739356  )
        29           H   tau(  29) = (   0.1165344   0.6373329   0.5331633  )
        30           H   tau(  30) = (   0.6165335   0.6373329   0.5340830  )
        31           H   tau(  31) = (   0.3378386   0.0933271   0.3889711  )
        32           H   tau(  32) = (   0.8378378   0.0933271   0.3898908  )
        33           H   tau(  33) = (   0.1472197   0.3515995   0.8698773  )
        34           H   tau(  34) = (   0.6472188   0.3515995   0.8707970  )
        35           H   tau(  35) = (   0.3071533   0.3790605   0.0522571  )
        36           H   tau(  36) = (   0.8071525   0.3790605   0.0531768  )
        37           H   tau(  37) = (   0.0343407   0.7169295   0.5124045  )
        38           H   tau(  38) = (   0.5343398   0.7169295   0.5133242  )
        39           H   tau(  39) = (   0.4200323   0.0137305   0.4097298  )
        40           H   tau(  40) = (   0.9200315   0.0137305   0.4106496  )
        41           H   tau(  41) = (   0.3124457   0.0048801   0.2461748  )
        42           H   tau(  42) = (   0.8124449   0.0048801   0.2470946  )
        43           H   tau(  43) = (   0.1419273   0.7257799   0.6759595  )
        44           H   tau(  44) = (   0.6419264   0.7257799   0.6768792  )
        45           H   tau(  45) = (   0.4147399   0.3702101   0.2158121  )
        46           H   tau(  46) = (   0.9147391   0.3702101   0.2167318  )
        47           H   tau(  47) = (   0.0396331   0.3604499   0.7063223  )
        48           H   tau(  48) = (   0.5396322   0.3604499   0.7072420  )
        49           H   tau(  49) = (   0.2873793   0.0824997   0.1042443  )
        50           H   tau(  50) = (   0.7873785   0.0824997   0.1051641  )
        51           H   tau(  51) = (   0.1669937   0.6481603   0.8178900  )
        52           H   tau(  52) = (   0.6669928   0.6481603   0.8188098  )
        53           H   tau(  53) = (   0.4398063   0.4478297   0.3577426  )
        54           H   tau(  54) = (   0.9398055   0.4478297   0.3586624  )
        55           H   tau(  55) = (   0.0145667   0.2828303   0.5643917  )
        56           H   tau(  56) = (   0.5145658   0.2828303   0.5653115  )
        57           H   tau(  57) = (   0.3071699   0.1264207   0.9011648  )
        58           H   tau(  58) = (   0.8071690   0.1264207   0.9020845  )
        59           H   tau(  59) = (   0.1472031   0.6042393   0.0209696  )
        60           H   tau(  60) = (   0.6472023   0.6042393   0.0218893  )
        61           H   tau(  61) = (   0.3743896   0.4917507   0.4820367  )
        62           H   tau(  62) = (   0.8743888   0.4917507   0.4829565  )
        63           H   tau(  63) = (   0.0799834   0.2389093   0.4400976  )
        64           H   tau(  64) = (   0.5799825   0.2389093   0.4410174  )
        65           H   tau(  65) = (   0.3493516   0.0674171   0.7549700  )
        66           H   tau(  66) = (   0.8493508   0.0674171   0.7558897  )
        67           H   tau(  67) = (   0.1050214   0.6632429   0.1671644  )
        68           H   tau(  68) = (   0.6050206   0.6632429   0.1680841  )
        69           H   tau(  69) = (   0.3322079   0.4327471   0.6282315  )
        70           H   tau(  70) = (   0.8322071   0.4327471   0.6291513  )
        71           H   tau(  71) = (   0.1221651   0.2979129   0.2939028  )
        72           H   tau(  72) = (   0.6221643   0.2979129   0.2948226  )
        73           H   tau(  73) = (   0.1936009   0.0032669   0.3605230  )
        74           H   tau(  74) = (   0.6936001   0.0032669   0.3614428  )
        75           H   tau(  75) = (   0.2607721   0.7273931   0.5616113  )
        76           H   tau(  76) = (   0.7607712   0.7273931   0.5625311  )
        77           H   tau(  77) = (   0.0335856   0.3685969   0.1005442  )
        78           H   tau(  78) = (   0.5335847   0.3685969   0.1014639  )
        79           H   tau(  79) = (   0.4207874   0.3620631   0.8215902  )
        80           H   tau(  80) = (   0.9207866   0.3620631   0.8225100  )
        81           H   tau(  81) = (   0.0525289   0.0794648   0.3315359  )
        82           H   tau(  82) = (   0.5525280   0.0794648   0.3324557  )
        83           H   tau(  83) = (   0.4018441   0.6511951   0.5905984  )
        84           H   tau(  84) = (   0.9018433   0.6511951   0.5915182  )
        85           H   tau(  85) = (   0.1746576   0.4447949   0.1295312  )
        86           H   tau(  86) = (   0.6746568   0.4447949   0.1304510  )
        87           H   tau(  87) = (   0.2797154   0.2858652   0.7926031  )
        88           H   tau(  88) = (   0.7797146   0.2858652   0.7935228  )
        89           H   tau(  89) = (   0.1234042   0.0967433   0.8223867  )
        90           H   tau(  90) = (   0.6234033   0.0967433   0.8233065  )
        91           H   tau(  91) = (   0.3309689   0.6339166   0.0997476  )
        92           H   tau(  92) = (   0.8309680   0.6339166   0.1006674  )
        93           H   tau(  93) = (   0.0581562   0.4620734   0.5598950  )
        94           H   tau(  94) = (   0.5581554   0.4620734   0.5608148  )
        95           H   tau(  95) = (   0.3962168   0.2685866   0.3622393  )
        96           H   tau(  96) = (   0.8962160   0.2685866   0.3631591  )
        97           H   tau(  97) = (   0.0064969   0.0526245   0.7134379  )
        98           H   tau(  98) = (   0.5064960   0.0526245   0.7143577  )
        99           H   tau(  99) = (   0.4478762   0.6780355   0.2086964  )
       100           H   tau( 100) = (   0.9478753   0.6780355   0.2096161  )
       101           H   tau( 101) = (   0.1750635   0.4179545   0.6688438  )
       102           H   tau( 102) = (   0.6750627   0.4179545   0.6697636  )
       103           H   tau( 103) = (   0.2793095   0.3127055   0.2532905  )
       104           H   tau( 104) = (   0.7793087   0.3127055   0.2542103  )
       105           H   tau( 105) = (   0.3914061   0.2014890   0.1151139  )
       106           H   tau( 106) = (   0.8914053   0.2014890   0.1160336  )
       107           H   tau( 107) = (   0.0629669   0.5291710   0.8070204  )
       108           H   tau( 108) = (   0.5629661   0.5291710   0.8079402  )
       109           H   tau( 109) = (   0.3357796   0.5668190   0.3468730  )
       110           H   tau( 110) = (   0.8357787   0.5668190   0.3477928  )
       111           H   tau( 111) = (   0.1185935   0.1638410   0.5752613  )
       112           H   tau( 112) = (   0.6185926   0.1638410   0.5761811  )
       113           H   tau( 113) = (   0.4676331   0.1825448   0.2489026  )
       114           H   tau( 114) = (   0.9676323   0.1825448   0.2498223  )
       115           H   tau( 115) = (  -0.0132601   0.5481152   0.6732318  )
       116           H   tau( 116) = (   0.4867390   0.5481152   0.6741515  )
       117           H   tau( 117) = (   0.2595525   0.5478748   0.2130844  )
       118           H   tau( 118) = (   0.7595517   0.5478748   0.2140041  )
       119           H   tau( 119) = (   0.1948205   0.1827852   0.7090500  )
       120           H   tau( 120) = (   0.6948196   0.1827852   0.7099697  )
       121           C   tau( 121) = (   0.2500652   0.0384005   0.2341891  )
       122           C   tau( 122) = (   0.7500643   0.0384005   0.2351089  )
       123           C   tau( 123) = (   0.2043078   0.6922594   0.6879452  )
       124           C   tau( 124) = (   0.7043070   0.6922594   0.6888650  )
       125           C   tau( 125) = (   0.9771196   0.4037305   0.2287175  )
       126           C   tau( 126) = (   0.4771205   0.4037305   0.2277978  )
       127           C   tau( 127) = (  -0.0227475   0.3269294   0.6943365  )
       128           C   tau( 128) = (   0.4772517   0.3269294   0.6952563  )
       129           C   tau( 129) = (   0.2361416   0.0816261   0.1543232  )
       130           C   tau( 130) = (   0.7361408   0.0816261   0.1552430  )
       131           C   tau( 131) = (   0.2182314   0.6490339   0.7678111  )
       132           C   tau( 132) = (   0.7182306   0.6490339   0.7687308  )
       133           C   tau( 133) = (  -0.0089551   0.4469561   0.3067439  )
       134           C   tau( 134) = (   0.4910441   0.4469561   0.3076637  )
       135           C   tau( 135) = (   0.4633281   0.2837039   0.6153904  )
       136           C   tau( 136) = (   0.9633273   0.2837039   0.6163102  )
       137           C   tau( 137) = (   0.1566303   0.1249650   0.1381273  )
       138           C   tau( 138) = (   0.6566294   0.1249650   0.1390471  )
       139           C   tau( 139) = (   0.2977427   0.6056950   0.7840071  )
       140           C   tau( 140) = (   0.7977419   0.6056950   0.7849268  )
       141           C   tau( 141) = (   0.0705562   0.4902950   0.3229399  )
       142           C   tau( 142) = (   0.5705554   0.4902950   0.3238596  )
       143           C   tau( 143) = (   0.3838168   0.2403650   0.5991945  )
       144           C   tau( 144) = (   0.8838159   0.2403650   0.6001142  )
       145           C   tau( 145) = (   0.0299810   0.1374783   0.9205158  )
       146           C   tau( 146) = (   0.5299801   0.1374783   0.9214355  )
       147           C   tau( 147) = (   0.4243920   0.5931817   0.0016186  )
       148           C   tau( 148) = (   0.9243912   0.5931817   0.0025383  )
       149           C   tau( 149) = (   0.1515794   0.5028083   0.4617660  )
       150           C   tau( 150) = (   0.6515786   0.5028083   0.4626857  )
       151           C   tau( 151) = (   0.3027936   0.2278517   0.4603684  )
       152           C   tau( 152) = (   0.8027928   0.2278517   0.4612881  )
       153           C   tau( 153) = (   0.4862969   0.1448895   0.0250001  )
       154           C   tau( 154) = (   0.9862960   0.1448895   0.0259199  )
       155           C   tau( 155) = (  -0.0319239   0.5857705   0.8971342  )
       156           C   tau( 156) = (   0.4680753   0.5857705   0.8980540  )
       157           C   tau( 157) = (   0.2408888   0.5102195   0.4369868  )
       158           C   tau( 158) = (   0.7408879   0.5102195   0.4379065  )
       159           C   tau( 159) = (   0.2134842   0.2204405   0.4851476  )
       160           C   tau( 160) = (   0.7134834   0.2204405   0.4860673  )
       161           C   tau( 161) = (   0.3766255   0.1190812   0.8840995  )
       162           C   tau( 162) = (   0.8766246   0.1190812   0.8850193  )
       163           C   tau( 163) = (   0.0777475   0.6115788   0.0380348  )
       164           C   tau( 164) = (   0.5777467   0.6115788   0.0389546  )
       165           C   tau( 165) = (   0.3049340   0.4844112   0.4991020  )
       166           C   tau( 166) = (   0.8049332   0.4844112   0.5000218  )
       167           C   tau( 167) = (   0.1494390   0.2462488   0.4230323  )
       168           C   tau( 168) = (   0.6494381   0.2462488   0.4239521  )
       169           C   tau( 169) = (   0.4000907   0.0857698   0.8021687  )
       170           C   tau( 170) = (   0.9000898   0.0857698   0.8030884  )
       171           C   tau( 171) = (   0.0542823   0.6448902   0.1199657  )
       172           C   tau( 172) = (   0.5542815   0.6448902   0.1208854  )
       173           C   tau( 173) = (   0.2814688   0.4510998   0.5810329  )
       174           C   tau( 174) = (   0.7814680   0.4510998   0.5819526  )
       175           C   tau( 175) = (   0.1729042   0.2795602   0.3411015  )
       176           C   tau( 176) = (   0.6729033   0.2795602   0.3420212  )
       177           C   tau( 177) = (   0.1837739   0.0377728   0.2982765  )
       178           C   tau( 178) = (   0.6837731   0.0377728   0.2991962  )
       179           C   tau( 179) = (   0.2705991   0.6928872   0.6238579  )
       180           C   tau( 180) = (   0.7705982   0.6928872   0.6247776  )
       181           C   tau( 181) = (   0.0434126   0.4031028   0.1627907  )
       182           C   tau( 182) = (   0.5434117   0.4031028   0.1637105  )
       183           C   tau( 183) = (   0.4109604   0.3275572   0.7593436  )
       184           C   tau( 184) = (   0.9109596   0.3275572   0.7602634  )
       185           C   tau( 185) = (   0.1044713   0.0804123   0.2819485  )
       186           C   tau( 186) = (   0.6044704   0.0804123   0.2828682  )
       187           C   tau( 187) = (   0.3499018   0.6502477   0.6401859  )
       188           C   tau( 188) = (   0.8499009   0.6502477   0.6411057  )
       189           C   tau( 189) = (   0.1227153   0.4457423   0.1791187  )
       190           C   tau( 190) = (   0.6227144   0.4457423   0.1800385  )
       191           C   tau( 191) = (   0.3316578   0.2849177   0.7430156  )
       192           C   tau( 192) = (   0.8316569   0.2849177   0.7439353  )
       193           C   tau( 193) = (   0.0884764   0.1240263   0.2014686  )
       194           C   tau( 194) = (   0.5884756   0.1240263   0.2023884  )
       195           C   tau( 195) = (   0.3658966   0.6066337   0.7206657  )
       196           C   tau( 196) = (   0.8658957   0.6066337   0.7215855  )
       197           C   tau( 197) = (   0.1387101   0.4893563   0.2595986  )
       198           C   tau( 198) = (   0.6387092   0.4893563   0.2605183  )
       199           C   tau( 199) = (   0.3156630   0.2413037   0.6625358  )
       200           C   tau( 200) = (   0.8156621   0.2413037   0.6634555  )
       201           C   tau( 201) = (   0.1880963   0.2486551   0.0381125  )
       202           C   tau( 202) = (   0.6880954   0.2486551   0.0390322  )
       203           C   tau( 203) = (   0.2662767   0.4820049   0.8840219  )
       204           C   tau( 204) = (   0.7662759   0.4820049   0.8849416  )
       205           C   tau( 205) = (   0.0390903   0.6139851   0.4229547  )
       206           C   tau( 206) = (   0.5390894   0.6139851   0.4238745  )
       207           C   tau( 207) = (   0.4152828   0.1166749   0.4991796  )
       208           C   tau( 208) = (   0.9152819   0.1166749   0.5000994  )
       209           C   tau( 209) = (   0.0536092   0.1021702   0.8387360  )
       210           C   tau( 210) = (   0.5536083   0.1021702   0.8396557  )
       211           C   tau( 211) = (   0.4007638   0.6284898   0.0833984  )
       212           C   tau( 212) = (   0.9007630   0.6284898   0.0843181  )
       213           C   tau( 213) = (   0.1279512   0.4675002   0.5435458  )
       214           C   tau( 214) = (   0.6279503   0.4675002   0.5444655  )
       215           C   tau( 215) = (   0.3264218   0.2631598   0.3785886  )
       216           C   tau( 216) = (   0.8264210   0.2631598   0.3795083  )
       217           C   tau( 217) = (  -0.0110862   0.0769522   0.7786093  )
       218           C   tau( 218) = (   0.4889130   0.0769522   0.7795291  )
       219           C   tau( 219) = (   0.4654592   0.6537078   0.1435250  )
       220           C   tau( 220) = (   0.9654583   0.6537078   0.1444448  )
       221           C   tau( 221) = (   0.1926465   0.4422822   0.6036724  )
       222           C   tau( 222) = (   0.6926457   0.4422822   0.6045922  )
       223           C   tau( 223) = (   0.2617265   0.2883778   0.3184619  )
       224           C   tau( 224) = (   0.7617257   0.2883778   0.3193817  )
       225           C   tau( 225) = (   0.4583331   0.1750785   0.1116802  )
       226           C   tau( 226) = (   0.9583322   0.1750785   0.1125999  )
       227           C   tau( 227) = (  -0.0039601   0.5555814   0.8104542  )
       228           C   tau( 228) = (   0.4960391   0.5555814   0.8113739  )
       229           C   tau( 229) = (   0.2688526   0.5404086   0.3503067  )
       230           C   tau( 230) = (   0.7688518   0.5404086   0.3512265  )
       231           C   tau( 231) = (   0.1855204   0.1902515   0.5718276  )
       232           C   tau( 232) = (   0.6855196   0.1902515   0.5727473  )
       233           C   tau( 233) = (   0.0026702   0.1647941   0.1875980  )
       234           C   tau( 234) = (   0.5026694   0.1647941   0.1885178  )
       235           C   tau( 235) = (   0.4517028   0.5658659   0.7345364  )
       236           C   tau( 236) = (   0.9517020   0.5658659   0.7354561  )
       237           C   tau( 237) = (   0.2245163   0.5301241   0.2734692  )
       238           C   tau( 238) = (   0.7245155   0.5301241   0.2743889  )
       239           C   tau( 239) = (   0.2298567   0.2005359   0.6486652  )
       240           C   tau( 240) = (   0.7298559   0.2005359   0.6495849  )

   Crystallographic axes

     site n.     atom                  positions (cryst. coord.)
         1           O   tau(   1) = (  0.2545234  0.3769148  0.0932426  )
         2           O   tau(   2) = (  0.7538646  0.3769148  0.0932426  )
         3           O   tau(   3) = (  0.2461354  0.6230852  0.9067573  )
         4           O   tau(   4) = (  0.7461354  0.6230852  0.9067573  )
         5           O   tau(   5) = (  0.4961354  0.8769148  0.4067574  )
         6           O   tau(   6) = (  0.9961354  0.8769148  0.4067574  )
         7           O   tau(   7) = (  0.0038646  0.1230852  0.5932427  )
         8           O   tau(   8) = (  0.5038646  0.1230852  0.5932427  )
         9           N   tau(   9) = (  0.1460027  0.2337919  0.0611039  )
        10           N   tau(  10) = (  0.6460027  0.2337919  0.0611039  )
        11           N   tau(  11) = (  0.3539973  0.7662082  0.9388961  )
        12           N   tau(  12) = (  0.8539973  0.7662082  0.9388961  )
        13           N   tau(  13) = (  0.1039973  0.7337918  0.4388961  )
        14           N   tau(  14) = (  0.6039973  0.7337918  0.4388961  )
        15           N   tau(  15) = (  0.3960027  0.2662081  0.5611039  )
        16           N   tau(  16) = (  0.8960027  0.2662081  0.5611039  )
        17           N   tau(  17) = (  0.1597464  0.4019968  0.9621155  )
        18           N   tau(  18) = (  0.6597464  0.4019968  0.9621155  )
        19           N   tau(  19) = (  0.3402536  0.5980032  0.0378845  )
        20           N   tau(  20) = (  0.8402536  0.5980032  0.0378845  )
        21           N   tau(  21) = (  0.0902536  0.9019968  0.5378845  )
        22           N   tau(  22) = (  0.5902536  0.9019968  0.5378845  )
        23           N   tau(  23) = (  0.4097464  0.0980032  0.4621155  )
        24           N   tau(  24) = (  0.9097464  0.0980032  0.4621155  )
        25           H   tau(  25) = (  0.1070718  0.3722702  0.9215242  )
        26           H   tau(  26) = (  0.6070718  0.3722702  0.9215242  )
        27           H   tau(  27) = (  0.3929282  0.6277298  0.0784758  )
        28           H   tau(  28) = (  0.8929282  0.6277298  0.0784758  )
        29           H   tau(  29) = (  0.1429282  0.8722702  0.5784758  )
        30           H   tau(  30) = (  0.6429282  0.8722702  0.5784758  )
        31           H   tau(  31) = (  0.3570718  0.1277298  0.4215242  )
        32           H   tau(  32) = (  0.8570718  0.1277298  0.4215242  )
        33           H   tau(  33) = (  0.1902862  0.4812080  0.9438922  )
        34           H   tau(  34) = (  0.6902862  0.4812080  0.9438922  )
        35           H   tau(  35) = (  0.3097138  0.5187920  0.0561079  )
        36           H   tau(  36) = (  0.8097138  0.5187920  0.0561079  )
        37           H   tau(  37) = (  0.0597138  0.9812080  0.5561078  )
        38           H   tau(  38) = (  0.5597138  0.9812080  0.5561078  )
        39           H   tau(  39) = (  0.4402862  0.0187920  0.4438922  )
        40           H   tau(  40) = (  0.9402862  0.0187920  0.4438922  )
        41           H   tau(  41) = (  0.3246093  0.0066790  0.2665804  )
        42           H   tau(  42) = (  0.8246093  0.0066790  0.2665804  )
        43           H   tau(  43) = (  0.1753907  0.9933210  0.7334196  )
        44           H   tau(  44) = (  0.6753907  0.9933210  0.7334196  )
        45           H   tau(  45) = (  0.4253907  0.5066790  0.2334196  )
        46           H   tau(  46) = (  0.9253907  0.5066790  0.2334196  )
        47           H   tau(  47) = (  0.0746093  0.4933210  0.7665804  )
        48           H   tau(  48) = (  0.5746093  0.4933210  0.7665804  )
        49           H   tau(  49) = (  0.2925162  0.1129112  0.1125756  )
        50           H   tau(  50) = (  0.7925162  0.1129112  0.1125756  )
        51           H   tau(  51) = (  0.2074838  0.8870888  0.8874245  )
        52           H   tau(  52) = (  0.7074838  0.8870888  0.8874245  )
        53           H   tau(  53) = (  0.4574838  0.6129112  0.3874245  )
        54           H   tau(  54) = (  0.9574838  0.6129112  0.3874245  )
        55           H   tau(  55) = (  0.0425162  0.3870888  0.6125755  )
        56           H   tau(  56) = (  0.5425162  0.3870888  0.6125755  )
        57           H   tau(  57) = (  0.3517715  0.1730227  0.9775330  )
        58           H   tau(  58) = (  0.8517715  0.1730227  0.9775330  )
        59           H   tau(  59) = (  0.1482285  0.8269773  0.0224670  )
        60           H   tau(  60) = (  0.6482285  0.8269773  0.0224670  )
        61           H   tau(  61) = (  0.3982285  0.6730227  0.5224670  )
        62           H   tau(  62) = (  0.8982285  0.6730227  0.5224670  )
        63           H   tau(  63) = (  0.1017715  0.3269773  0.4775330  )
        64           H   tau(  64) = (  0.6017715  0.3269773  0.4775330  )
        65           H   tau(  65) = (  0.3867094  0.0922688  0.8187654  )
        66           H   tau(  66) = (  0.8867094  0.0922688  0.8187654  )
        67           H   tau(  67) = (  0.1132906  0.9077312  0.1812346  )
        68           H   tau(  68) = (  0.6132906  0.9077312  0.1812346  )
        69           H   tau(  69) = (  0.3632906  0.5922688  0.6812346  )
        70           H   tau(  70) = (  0.8632906  0.5922688  0.6812346  )
        71           H   tau(  71) = (  0.1367094  0.4077312  0.3187654  )
        72           H   tau(  72) = (  0.6367094  0.4077312  0.3187654  )
        73           H   tau(  73) = (  0.2114381  0.0044712  0.3909340  )
        74           H   tau(  74) = (  0.7114381  0.0044712  0.3909340  )
        75           H   tau(  75) = (  0.2885619  0.9955288  0.6090660  )
        76           H   tau(  76) = (  0.7885619  0.9955288  0.6090660  )
        77           H   tau(  77) = (  0.0385619  0.5044712  0.1090660  )
        78           H   tau(  78) = (  0.5385619  0.5044712  0.1090660  )
        79           H   tau(  79) = (  0.4614381  0.4955288  0.8909340  )
        80           H   tau(  80) = (  0.9614381  0.4955288  0.8909340  )
        81           H   tau(  81) = (  0.0689431  0.1087576  0.3597524  )
        82           H   tau(  82) = (  0.5689431  0.1087576  0.3597524  )
        83           H   tau(  83) = (  0.4310569  0.8912424  0.6402477  )
        84           H   tau(  84) = (  0.9310569  0.8912424  0.6402477  )
        85           H   tau(  85) = (  0.1810569  0.6087576  0.1402476  )
        86           H   tau(  86) = (  0.6810569  0.6087576  0.1402476  )
        87           H   tau(  87) = (  0.3189431  0.3912424  0.8597523  )
        88           H   tau(  88) = (  0.8189431  0.3912424  0.8597523  )
        89           H   tau(  89) = (  0.1641208  0.1324054  0.8923923  )
        90           H   tau(  90) = (  0.6641208  0.1324054  0.8923923  )
        91           H   tau(  91) = (  0.3358792  0.8675946  0.1076077  )
        92           H   tau(  92) = (  0.8358792  0.8675946  0.1076077  )
        93           H   tau(  93) = (  0.0858792  0.6324054  0.6076077  )
        94           H   tau(  94) = (  0.5858792  0.6324054  0.6076077  )
        95           H   tau(  95) = (  0.4141208  0.3675946  0.3923923  )
        96           H   tau(  96) = (  0.9141208  0.3675946  0.3923923  )
        97           H   tau(  97) = (  0.0418284  0.0720233  0.7743701  )
        98           H   tau(  98) = (  0.5418284  0.0720233  0.7743701  )
        99           H   tau(  99) = (  0.4581716  0.9279767  0.2256299  )
       100           H   tau( 100) = (  0.9581716  0.9279767  0.2256299  )
       101           H   tau( 101) = (  0.2081716  0.5720233  0.7256299  )
       102           H   tau( 102) = (  0.7081716  0.5720233  0.7256299  )
       103           H   tau( 103) = (  0.2918284  0.4279767  0.2743701  )
       104           H   tau( 104) = (  0.7918284  0.4279767  0.2743701  )
       105           H   tau( 105) = (  0.3970720  0.2757630  0.1241659  )
       106           H   tau( 106) = (  0.8970720  0.2757630  0.1241659  )
       107           H   tau( 107) = (  0.1029280  0.7242370  0.8758341  )
       108           H   tau( 108) = (  0.6029280  0.7242370  0.8758341  )
       109           H   tau( 109) = (  0.3529280  0.7757630  0.3758341  )
       110           H   tau( 110) = (  0.8529280  0.7757630  0.3758341  )
       111           H   tau( 111) = (  0.1470720  0.2242370  0.6241659  )
       112           H   tau( 112) = (  0.6470720  0.2242370  0.6241659  )
       113           H   tau( 113) = (  0.4799179  0.2498355  0.2692313  )
       114           H   tau( 114) = (  0.9799179  0.2498355  0.2692313  )
       115           H   tau( 115) = (  0.0200821  0.7501645  0.7307687  )
       116           H   tau( 116) = (  0.5200821  0.7501645  0.7307687  )
       117           H   tau( 117) = (  0.2700821  0.7498355  0.2307687  )
       118           H   tau( 118) = (  0.7700821  0.7498355  0.2307687  )
       119           H   tau( 119) = (  0.2299179  0.2501645  0.7692313  )
       120           H   tau( 120) = (  0.7299179  0.2501645  0.7692313  )
       121           C   tau( 121) = (  0.2616408  0.0525560  0.2536953  )
       122           C   tau( 122) = (  0.7616408  0.0525560  0.2536953  )
       123           C   tau( 123) = (  0.2383592  0.9474440  0.7463047  )
       124           C   tau( 124) = (  0.7383592  0.9474440  0.7463047  )
       125           C   tau( 125) = (  0.9883592  0.5525560  0.2463047  )
       126           C   tau( 126) = (  0.4883592  0.5525560  0.2463047  )
       127           C   tau( 127) = (  0.0116408  0.4474440  0.7536953  )
       128           C   tau( 128) = (  0.5116408  0.4474440  0.7536953  )
       129           C   tau( 129) = (  0.2437632  0.1117156  0.1670347  )
       130           C   tau( 130) = (  0.7437632  0.1117156  0.1670347  )
       131           C   tau( 131) = (  0.2562368  0.8882844  0.8329652  )
       132           C   tau( 132) = (  0.7562368  0.8882844  0.8329652  )
       133           C   tau( 133) = (  0.0062368  0.6117156  0.3329652  )
       134           C   tau( 134) = (  0.5062368  0.6117156  0.3329652  )
       135           C   tau( 135) = (  0.4937632  0.3882844  0.6670348  )
       136           C   tau( 136) = (  0.9937632  0.3882844  0.6670348  )
       137           C   tau( 137) = (  0.1634568  0.1710303  0.1496140  )
       138           C   tau( 138) = (  0.6634568  0.1710303  0.1496140  )
       139           C   tau( 139) = (  0.3365431  0.8289697  0.8503860  )
       140           C   tau( 140) = (  0.8365431  0.8289697  0.8503860  )
       141           C   tau( 141) = (  0.0865432  0.6710303  0.3503860  )
       142           C   tau( 142) = (  0.5865432  0.6710303  0.3503860  )
       143           C   tau( 143) = (  0.4134569  0.3289697  0.6496140  )
       144           C   tau( 144) = (  0.9134569  0.3289697  0.6496140  )
       145           C   tau( 145) = (  0.0755657  0.1881564  0.9990905  )
       146           C   tau( 146) = (  0.5755657  0.1881564  0.9990905  )
       147           C   tau( 147) = (  0.4244343  0.8118436  0.0009095  )
       148           C   tau( 148) = (  0.9244343  0.8118436  0.0009095  )
       149           C   tau( 149) = (  0.1744343  0.6881564  0.5009095  )
       150           C   tau( 150) = (  0.6744343  0.6881564  0.5009095  )
       151           C   tau( 151) = (  0.3255657  0.3118436  0.4990905  )
       152           C   tau( 152) = (  0.8255657  0.3118436  0.4990905  )
       153           C   tau( 153) = (  0.4874915  0.1982995  0.0261648  )
       154           C   tau( 154) = (  0.9874915  0.1982995  0.0261648  )
       155           C   tau( 155) = (  0.0125085  0.8017005  0.9738352  )
       156           C   tau( 156) = (  0.5125085  0.8017005  0.9738352  )
       157           C   tau( 157) = (  0.2625085  0.6982995  0.4738352  )
       158           C   tau( 158) = (  0.7625085  0.6982995  0.4738352  )
       159           C   tau( 159) = (  0.2374915  0.3017005  0.5261648  )
       160           C   tau( 160) = (  0.7374915  0.3017005  0.5261648  )
       161           C   tau( 161) = (  0.4203758  0.1629776  0.9588713  )
       162           C   tau( 162) = (  0.9203758  0.1629776  0.9588713  )
       163           C   tau( 163) = (  0.0796242  0.8370225  0.0411287  )
       164           C   tau( 164) = (  0.5796242  0.8370225  0.0411287  )
       165           C   tau( 165) = (  0.3296242  0.6629775  0.5411287  )
       166           C   tau( 166) = (  0.8296242  0.6629775  0.5411287  )
       167           C   tau( 167) = (  0.1703758  0.3370225  0.4588713  )
       168           C   tau( 168) = (  0.6703758  0.3370225  0.4588713  )
       169           C   tau( 169) = (  0.4397814  0.1173868  0.8698947  )
       170           C   tau( 170) = (  0.9397814  0.1173868  0.8698947  )
       171           C   tau( 171) = (  0.0602186  0.8826133  0.1301053  )
       172           C   tau( 172) = (  0.5602186  0.8826133  0.1301053  )
       173           C   tau( 173) = (  0.3102186  0.6173867  0.6301053  )
       174           C   tau( 174) = (  0.8102186  0.6173867  0.6301053  )
       175           C   tau( 175) = (  0.1897814  0.3826132  0.3698947  )
       176           C   tau( 176) = (  0.6897814  0.3826132  0.3698947  )
       177           C   tau( 177) = (  0.1985293  0.0516968  0.3233896  )
       178           C   tau( 178) = (  0.6985293  0.0516968  0.3233896  )
       179           C   tau( 179) = (  0.3014707  0.9483032  0.6766104  )
       180           C   tau( 180) = (  0.8014707  0.9483032  0.6766104  )
       181           C   tau( 181) = (  0.0514707  0.5516968  0.1766104  )
       182           C   tau( 182) = (  0.5514707  0.5516968  0.1766104  )
       183           C   tau( 183) = (  0.4485293  0.4483032  0.8233896  )
       184           C   tau( 184) = (  0.9485293  0.4483032  0.8233896  )
       185           C   tau( 185) = (  0.1184251  0.1100543  0.3058252  )
       186           C   tau( 186) = (  0.6184251  0.1100543  0.3058252  )
       187           C   tau( 187) = (  0.3815749  0.8899456  0.6941749  )
       188           C   tau( 188) = (  0.8815749  0.8899456  0.6941749  )
       189           C   tau( 189) = (  0.1315749  0.6100544  0.1941748  )
       190           C   tau( 190) = (  0.6315749  0.6100544  0.1941748  )
       191           C   tau( 191) = (  0.3684251  0.3899457  0.8058251  )
       192           C   tau( 192) = (  0.8684251  0.3899457  0.8058251  )
       193           C   tau( 193) = (  0.0984460  0.1697456  0.2185023  )
       194           C   tau( 194) = (  0.5984460  0.1697456  0.2185023  )
       195           C   tau( 195) = (  0.4015540  0.8302544  0.7814977  )
       196           C   tau( 196) = (  0.9015540  0.8302544  0.7814977  )
       197           C   tau( 197) = (  0.1515540  0.6697456  0.2814977  )
       198           C   tau( 198) = (  0.6515540  0.6697456  0.2814977  )
       199           C   tau( 199) = (  0.3484460  0.3302544  0.7185023  )
       200           C   tau( 200) = (  0.8484460  0.3302544  0.7185023  )
       201           C   tau( 201) = (  0.1899669  0.3403158  0.0409927  )
       202           C   tau( 202) = (  0.6899669  0.3403158  0.0409927  )
       203           C   tau( 203) = (  0.3100331  0.6596842  0.9590074  )
       204           C   tau( 204) = (  0.8100331  0.6596842  0.9590074  )
       205           C   tau( 205) = (  0.0600331  0.8403158  0.4590074  )
       206           C   tau( 206) = (  0.5600331  0.8403158  0.4590074  )
       207           C   tau( 207) = (  0.4399669  0.1596842  0.5409926  )
       208           C   tau( 208) = (  0.9399669  0.1596842  0.5409926  )
       209           C   tau( 209) = (  0.0951418  0.1398328  0.9102775  )
       210           C   tau( 210) = (  0.5951418  0.1398328  0.9102775  )
       211           C   tau( 211) = (  0.4048582  0.8601672  0.0897224  )
       212           C   tau( 212) = (  0.9048582  0.8601672  0.0897224  )
       213           C   tau( 213) = (  0.1548582  0.6398328  0.5897225  )
       214           C   tau( 214) = (  0.6548582  0.6398328  0.5897225  )
       215           C   tau( 215) = (  0.3451418  0.3601672  0.4102775  )
       216           C   tau( 216) = (  0.8451418  0.3601672  0.4102775  )
       217           C   tau( 217) = (  0.0274745  0.1053188  0.8451438  )
       218           C   tau( 218) = (  0.5274745  0.1053188  0.8451438  )
       219           C   tau( 219) = (  0.4725254  0.8946813  0.1548562  )
       220           C   tau( 220) = (  0.9725254  0.8946813  0.1548562  )
       221           C   tau( 221) = (  0.2225255  0.6053187  0.6548562  )
       222           C   tau( 222) = (  0.7225255  0.6053187  0.6548562  )
       223           C   tau( 223) = (  0.2774746  0.3946813  0.3451438  )
       224           C   tau( 224) = (  0.7774746  0.3946813  0.3451438  )
       225           C   tau( 225) = (  0.4638229  0.2396170  0.1203053  )
       226           C   tau( 226) = (  0.9638229  0.2396170  0.1203053  )
       227           C   tau( 227) = (  0.0361771  0.7603830  0.8796947  )
       228           C   tau( 228) = (  0.5361771  0.7603830  0.8796947  )
       229           C   tau( 229) = (  0.2861771  0.7396170  0.3796947  )
       230           C   tau( 230) = (  0.7861771  0.7396170  0.3796947  )
       231           C   tau( 231) = (  0.2138229  0.2603830  0.6203053  )
       232           C   tau( 232) = (  0.7138229  0.2603830  0.6203053  )
       233           C   tau( 233) = (  0.0119605  0.2255415  0.2036182  )
       234           C   tau( 234) = (  0.5119605  0.2255415  0.2036182  )
       235           C   tau( 235) = (  0.4880395  0.7744585  0.7963819  )
       236           C   tau( 236) = (  0.9880395  0.7744585  0.7963819  )
       237           C   tau( 237) = (  0.2380395  0.7255415  0.2963818  )
       238           C   tau( 238) = (  0.7380395  0.7255415  0.2963818  )
       239           C   tau( 239) = (  0.2619605  0.2744585  0.7036181  )
       240           C   tau( 240) = (  0.7619605  0.2744585  0.7036181  )

     number of k points=     8  Gaussian smearing, width (Ry)=  0.0037
                       cart. coord. in units 2pi/alat
        k(    1) = (   0.0000000   0.0000000   0.0000000), wk =   0.2500000
        k(    2) = (   0.0009983   0.0000000  -0.5427123), wk =   0.2500000
        k(    3) = (   0.0000000  -0.6843128   0.0000000), wk =   0.2500000
        k(    4) = (   0.0009983  -0.6843128  -0.5427123), wk =   0.2500000
        k(    5) = (  -0.4999553   0.0000000  -0.0247619), wk =   0.2500000
        k(    6) = (  -0.4989570   0.0000000  -0.5674742), wk =   0.2500000
        k(    7) = (  -0.4999553  -0.6843128  -0.0247619), wk =   0.2500000
        k(    8) = (  -0.4989570  -0.6843128  -0.5674742), wk =   0.2500000

                       cryst. coord.
        k(    1) = (   0.0000000   0.0000000   0.0000000), wk =   0.2500000
        k(    2) = (   0.0000000   0.0000000  -0.5000000), wk =   0.2500000
        k(    3) = (   0.0000000  -0.5000000   0.0000000), wk =   0.2500000
        k(    4) = (   0.0000000  -0.5000000  -0.5000000), wk =   0.2500000
        k(    5) = (  -0.5000000   0.0000000   0.0000000), wk =   0.2500000
        k(    6) = (  -0.5000000   0.0000000  -0.5000000), wk =   0.2500000
        k(    7) = (  -0.5000000  -0.5000000   0.0000000), wk =   0.2500000
        k(    8) = (  -0.5000000  -0.5000000  -0.5000000), wk =   0.2500000

     Dense  grid:  7242751 G-vectors     FFT dimensions: ( 288, 216, 256)

     Smooth grid:  1393605 G-vectors     FFT dimensions: ( 160, 120, 150)

     Dynamical RAM for                 wfc:     140.23 MB

     Dynamical RAM for     wfc (w. buffer):    1262.10 MB

     Dynamical RAM for           str. fact:      55.26 MB

     Dynamical RAM for           local pot:       0.00 MB

     Dynamical RAM for          nlocal pot:     459.91 MB

     Dynamical RAM for                qrad:      31.35 MB

     Dynamical RAM for          rho,v,vnew:      87.01 MB

     Dynamical RAM for               rhoin:      29.00 MB

     Dynamical RAM for            rho*nmix:     221.03 MB

     Dynamical RAM for           G-vectors:      53.13 MB

     Dynamical RAM for          h,s,v(r/c):      32.61 MB

     Dynamical RAM for          <psi|beta>:       8.91 MB

     Dynamical RAM for                 psi:     560.93 MB

     Dynamical RAM for                hpsi:     560.93 MB

     Dynamical RAM for                spsi:     560.93 MB

     Dynamical RAM for      wfcinit/wfcrot:     456.96 MB

     Dynamical RAM for           addusdens:    3122.07 MB

     Estimated static dynamical RAM per process >       2.29 GB

     Estimated max dynamical RAM per process >       5.34 GB

     Estimated total dynamical RAM >      42.70 GB

     Initial potential from superposition of free atoms

     starting charge  703.99412, renormalised to  704.00000
     Starting wfcs are  672 randomized atomic wfcs

     total cpu time spent up to now is      348.4 secs

     Self-consistent Calculation

     iteration #  1     ecut=    75.00 Ry     beta= 0.70
     Davidson diagonalization with overlap
     ethr =  1.00E-02,  avg # of iterations =  6.2

     total cpu time spent up to now is     1292.0 secs

     total energy              =   -1446.35182620 Ry
     Harris-Foulkes estimate   =   -1475.01972619 Ry
     estimated scf accuracy    <      32.48853506 Ry

     iteration #  2     ecut=    75.00 Ry     beta= 0.70
     Davidson diagonalization with overlap
     ethr =  4.61E-03,  avg # of iterations =  4.0

     total cpu time spent up to now is     2327.3 secs

     total energy              =   -1445.77825764 Ry
     Harris-Foulkes estimate   =   -1498.88574496 Ry
     estimated scf accuracy    <     133.71367176 Ry

     iteration #  3     ecut=    75.00 Ry     beta= 0.70
     Davidson diagonalization with overlap
     ethr =  4.61E-03,  avg # of iterations =  4.1

     total cpu time spent up to now is     3131.7 secs

     total energy              =   -1467.76338887 Ry
     Harris-Foulkes estimate   =   -1470.87713896 Ry
     estimated scf accuracy    <       7.01078198 Ry

     iteration #  4     ecut=    75.00 Ry     beta= 0.70
     Davidson diagonalization with overlap
     ethr =  9.96E-04,  avg # of iterations =  3.2

     total cpu time spent up to now is     3800.5 secs

     total energy              =   -1468.57914440 Ry
     Harris-Foulkes estimate   =   -1468.91284435 Ry
     estimated scf accuracy    <       0.63819067 Ry

     iteration #  5     ecut=    75.00 Ry     beta= 0.70
     Davidson diagonalization with overlap
     ethr =  9.07E-05,  avg # of iterations =  7.2

     total cpu time spent up to now is     4665.0 secs

     total energy              =   -1468.57580211 Ry
     Harris-Foulkes estimate   =   -1468.71189355 Ry
     estimated scf accuracy    <       0.22583949 Ry

     iteration #  6     ecut=    75.00 Ry     beta= 0.70
     Davidson diagonalization with overlap
     ethr =  3.21E-05,  avg # of iterations =  6.6

     total cpu time spent up to now is     5534.8 secs

     total energy              =   -1468.62261355 Ry
     Harris-Foulkes estimate   =   -1468.67526950 Ry
     estimated scf accuracy    <       0.12760952 Ry

     iteration #  7     ecut=    75.00 Ry     beta= 0.70
     Davidson diagonalization with overlap
     ethr =  1.81E-05,  avg # of iterations =  7.4

     total cpu time spent up to now is     6326.6 secs

     total energy              =   -1468.64056199 Ry
     Harris-Foulkes estimate   =   -1468.65834768 Ry
     estimated scf accuracy    <       0.04791676 Ry

     iteration #  8     ecut=    75.00 Ry     beta= 0.70
     Davidson diagonalization with overlap
     ethr =  6.81E-06,  avg # of iterations =  6.4

     total cpu time spent up to now is     7039.5 secs

     total energy              =   -1468.64864917 Ry
     Harris-Foulkes estimate   =   -1468.64998636 Ry
     estimated scf accuracy    <       0.00295730 Ry

     iteration #  9     ecut=    75.00 Ry     beta= 0.70
     Davidson diagonalization with overlap
     ethr =  4.20E-07,  avg # of iterations =  5.9

     total cpu time spent up to now is     7762.0 secs

     total energy              =   -1468.64929603 Ry
     Harris-Foulkes estimate   =   -1468.64956444 Ry
     estimated scf accuracy    <       0.00062236 Ry

     iteration # 10     ecut=    75.00 Ry     beta= 0.70
     Davidson diagonalization with overlap
     ethr =  8.84E-08,  avg # of iterations =  3.0

     total cpu time spent up to now is     8399.1 secs

     total energy              =   -1468.64939914 Ry
     Harris-Foulkes estimate   =   -1468.64945217 Ry
     estimated scf accuracy    <       0.00011024 Ry

     iteration # 11     ecut=    75.00 Ry     beta= 0.70
     Davidson diagonalization with overlap
     ethr =  1.57E-08,  avg # of iterations =  2.8

     total cpu time spent up to now is     9039.7 secs

     total energy              =   -1468.64942043 Ry
     Harris-Foulkes estimate   =   -1468.64943461 Ry
     estimated scf accuracy    <       0.00003478 Ry

     iteration # 12     ecut=    75.00 Ry     beta= 0.70
     Davidson diagonalization with overlap
     ethr =  4.94E-09,  avg # of iterations =  2.2

     total cpu time spent up to now is     9648.6 secs

     total energy              =   -1468.64942735 Ry
     Harris-Foulkes estimate   =   -1468.64942989 Ry
     estimated scf accuracy    <       0.00000647 Ry

     iteration # 13     ecut=    75.00 Ry     beta= 0.70
     Davidson diagonalization with overlap
     ethr =  9.19E-10,  avg # of iterations =  2.2

     total cpu time spent up to now is    10266.5 secs

     total energy              =   -1468.64942858 Ry
     Harris-Foulkes estimate   =   -1468.64942888 Ry
     estimated scf accuracy    <       0.00000068 Ry

     iteration # 14     ecut=    75.00 Ry     beta= 0.70
     Davidson diagonalization with overlap
     ethr =  9.66E-11,  avg # of iterations =  2.5

     total cpu time spent up to now is    10915.4 secs

     total energy              =   -1468.64942873 Ry
     Harris-Foulkes estimate   =   -1468.64942881 Ry
     estimated scf accuracy    <       0.00000020 Ry

     iteration # 15     ecut=    75.00 Ry     beta= 0.70
     Davidson diagonalization with overlap
     ethr =  2.79E-11,  avg # of iterations =  2.9

     total cpu time spent up to now is    11558.0 secs

     total energy              =   -1468.64942877 Ry
     Harris-Foulkes estimate   =   -1468.64942879 Ry
     estimated scf accuracy    <       0.00000005 Ry

     iteration # 16     ecut=    75.00 Ry     beta= 0.70
     Davidson diagonalization with overlap
     ethr =  7.81E-12,  avg # of iterations =  3.0

     total cpu time spent up to now is    12188.6 secs

     total energy              =   -1468.64942878 Ry
     Harris-Foulkes estimate   =   -1468.64942878 Ry
     estimated scf accuracy    <       0.00000001 Ry

     iteration # 17     ecut=    75.00 Ry     beta= 0.70
     Davidson diagonalization with overlap
     ethr =  1.56E-12,  avg # of iterations =  3.0

     total cpu time spent up to now is    12856.6 secs

     End of self-consistent calculation

          k = 0.0000 0.0000 0.0000 (174175 PWs)   bands (ev):

    -7.7081  -7.7062  -7.7056  -7.6861  -7.6077  -7.6072  -7.6067  -7.5747
    -5.5580  -5.5559  -5.5507  -5.5471  -5.5297  -5.5261  -5.5160  -5.5075
    -3.8966  -3.8470  -3.8469  -3.8212  -3.8109  -3.7886  -3.7878  -3.7377
    -3.4719  -3.4715  -3.4646  -3.4336  -3.4275  -3.4067  -3.3898  -3.3893
    -3.1637  -3.0401  -3.0396  -3.0274  -2.9982  -2.9976  -2.9963  -2.9208
    -1.9962  -1.9960  -1.9389  -1.9331  -1.8992  -1.8992  -1.8934  -1.8552
    -0.8091  -0.7971  -0.7865  -0.7862  -0.7537  -0.7460  -0.7146  -0.7143
    -0.6491  -0.6133  -0.5898  -0.5860  -0.5857  -0.5744  -0.5738  -0.5140
    -0.0690  -0.0684  -0.0548  -0.0305   0.0295   0.0614   0.0619   0.0796
     0.5688   0.5692   0.5764   0.5906   0.6169   0.7169   0.7179   0.7185
     2.1314   2.1318   2.1383   2.1535   2.2145   2.2477   2.2491   2.2494
     2.3187   2.3352   2.3359   2.3558   2.3597   2.3897   2.4292   2.4298
     2.9174   2.9642   3.0441   3.0760   3.0767   3.1179   3.1185   3.1668
     3.1977   3.2121   3.2122   3.2388   3.2595   3.2598   3.2617   3.2892
     3.7678   3.7680   3.8506   3.8968   3.8988   3.8989   3.9305   3.9626
     4.0831   4.0915   4.1554   4.1561   4.3731   4.3905   4.3912   4.4581
     4.4822   4.5387   4.5722   4.5727   4.6766   4.6999   4.7006   4.7211
     5.3038   5.3042   5.3093   5.3825   5.3918   5.3923   5.4687   5.5233
     5.6170   5.6678   5.6712   5.6716   5.7380   5.8027   5.8446   5.8454
     5.8699   5.8760   5.8771   5.9566   5.9746   5.9754   6.0147   6.0207
     6.0209   6.0257   6.0310   6.0819   6.1964   6.1965   6.2769   6.2773
     6.2852   6.3431   6.4097   6.4385   6.4598   6.4599   6.5415   6.5541
     6.7049   6.7223   6.7228   6.7411   6.8284   6.8655   6.9345   6.9350
     6.9964   7.0131   7.0135   7.1418   7.1460   7.1645   7.1650   7.1684
     7.2438   7.2711   7.2714   7.2936   7.3584   7.3652   7.3675   7.3699
     7.3888   7.3891   7.4379   7.4394   7.4501   7.4503   7.4724   7.5175
     7.5276   7.5507   7.5512   7.5998   7.6113   7.6126   7.6401   7.7110
     7.7501   7.7630   7.8038   7.8043   7.8588   7.8597   7.8738   7.9226
     7.9227   7.9296   7.9366   7.9419   7.9896   7.9908   8.0781   8.1681
     8.2022   8.2134   8.2280   8.2486   8.2488   8.2681   8.2685   8.3857
     8.4347   8.4432   8.4799   8.4815   8.5084   8.6107   8.6132   8.6137
     8.8355   8.8780   8.9123   8.9124   8.9186   9.0088   9.0101   9.0557
     9.0580   9.1346   9.2142   9.2752   9.2756   9.2769   9.3125   9.3831
     9.4166   9.4168   9.5800   9.6151   9.6825   9.6826   9.7140   9.7177
     9.7180   9.7615   9.7837   9.7838   9.7855   9.7961   9.8714   9.8718
     9.9013   9.9051   9.9162   9.9477   9.9479   9.9711   9.9835  10.0139
    10.0141  10.0249  10.0279  10.0280  10.1274  10.1371  10.1374  10.1579
    10.2169  10.2170  10.2291  10.2554  10.3494  10.3498  10.3759  10.4709
    10.4934  10.5196  10.5197  10.5644  10.5645  10.5858  10.6245  10.7320
    10.7324  10.7787  10.8226  10.9214  10.9379  10.9382  10.9949  11.0123
    11.2185  11.2199  11.3015  11.3117  11.3981  11.4522  11.4524  11.4943
    11.5006  11.5476  11.5487  11.5938  11.6082  11.6095  11.6227  11.6799
    11.7791  11.7806  11.8343  11.9006  11.9108  11.9401  11.9411  12.0092
    12.0413  12.1128  12.1343  12.1704  12.1721  12.2040  12.2051  12.3184
    14.2311  14.3578  14.3581  14.4228  14.4613  14.5433  14.5787  14.5789
    14.6532  14.6856  14.7013  14.7015  14.8756  15.0071  15.0077  15.0214
    15.1705  15.1767  15.2265  15.2605  15.2611  15.3075  15.4121  15.4125
    15.4532  15.4534  15.4619  15.4915  15.5384  15.5444  15.5451  15.5830
    15.6779  15.8162  15.8180  15.8181  15.8294  15.8695  15.9502  15.9506
    15.9762  16.0589  16.0804  16.0808  16.1181  16.1185  16.1843  16.2226
    16.2230  16.2623  16.3516  16.3523  16.3634  16.4781  16.5250  16.5776
    16.5959  16.7490  16.8058  16.8130  16.8138  16.8350  16.8625  16.8664
    16.8681  16.9790  16.9999  17.0004  17.0338  17.0961

     occupation numbers 
     1.0000   1.0000   1.0000   1.0000   1.0000   1.0000   1.0000   1.0000
     1.0000   1.0000   1.0000   1.0000   1.0000   1.0000   1.0000   1.0000
     1.0000   1.0000   1.0000   1.0000   1.0000   1.0000   1.0000   1.0000
     1.0000   1.0000   1.0000   1.0000   1.0000   1.0000   1.0000   1.0000
     1.0000   1.0000   1.0000   1.0000   1.0000   1.0000   1.0000   1.0000
     1.0000   1.0000   1.0000   1.0000   1.0000   1.0000   1.0000   1.0000
     1.0000   1.0000   1.0000   1.0000   1.0000   1.0000   1.0000   1.0000
     1.0000   1.0000   1.0000   1.0000   1.0000   1.0000   1.0000   1.0000
     1.0000   1.0000   1.0000   1.0000   1.0000   1.0000   1.0000   1.0000
     1.0000   1.0000   1.0000   1.0000   1.0000   1.0000   1.0000   1.0000
     1.0000   1.0000   1.0000   1.0000   1.0000   1.0000   1.0000   1.0000
     1.0000   1.0000   1.0000   1.0000   1.0000   1.0000   1.0000   1.0000
     1.0000   1.0000   1.0000   1.0000   1.0000   1.0000   1.0000   1.0000
     1.0000   1.0000   1.0000   1.0000   1.0000   1.0000   1.0000   1.0000
     1.0000   1.0000   1.0000   1.0000   1.0000   1.0000   1.0000   1.0000
     1.0000   1.0000   1.0000   1.0000   1.0000   1.0000   1.0000   1.0000
     1.0000   1.0000   1.0000   1.0000   1.0000   1.0000   1.0000   1.0000
     1.0000   1.0000   1.0000   1.0000   1.0000   1.0000   1.0000   1.0000
     1.0000   1.0000   1.0000   1.0000   1.0000   1.0000   1.0000   1.0000
     1.0000   1.0000   1.0000   1.0000   1.0000   1.0000   1.0000   1.0000
     1.0000   1.0000   1.0000   1.0000   1.0000   1.0000   1.0000   1.0000
     1.0000   1.0000   1.0000   1.0000   1.0000   1.0000   1.0000   1.0000
     1.0000   1.0000   1.0000   1.0000   1.0000   1.0000   1.0000   1.0000
     1.0000   1.0000   1.0000   1.0000   1.0000   1.0000   1.0000   1.0000
     1.0000   1.0000   1.0000   1.0000   1.0000   1.0000   1.0000   1.0000
     1.0000   1.0000   1.0000   1.0000   1.0000   1.0000   1.0000   1.0000
     1.0000   1.0000   1.0000   1.0000   1.0000   1.0000   1.0000   1.0000
     1.0000   1.0000   1.0000   1.0000   1.0000   1.0000   1.0000   1.0000
     1.0000   1.0000   1.0000   1.0000   1.0000   1.0000   1.0000   1.0000
     1.0000   1.0000   1.0000   1.0000   1.0000   1.0000   1.0000   1.0000
     1.0000   1.0000   1.0000   1.0000   1.0000   1.0000   1.0000   1.0000
     1.0000   1.0000   1.0000   1.0000   1.0000   1.0000   1.0000   1.0000
     1.0000   1.0000   1.0000   1.0000   1.0000   1.0000   1.0000   1.0000
     1.0000   1.0000   1.0000   1.0000   1.0000   1.0000   1.0000   1.0000
     1.0000   1.0000   1.0000   1.0000   1.0000   1.0000   1.0000   1.0000
     1.0000   1.0000   1.0000   1.0000   1.0000   1.0000   1.0000   1.0000
     1.0000   1.0000   1.0000   1.0000   1.0000   1.0000   1.0000   1.0000
     1.0000   1.0000   1.0000   1.0000   1.0000   1.0000   1.0000   1.0000
     1.0000   1.0000   1.0000   1.0000   1.0000   1.0000   1.0000   1.0000
     1.0000   1.0000   1.0000   1.0000   1.0000   1.0000   1.0000   1.0000
     1.0000   1.0000   1.0000   1.0000   1.0000   1.0000   1.0000   1.0000
     1.0000   1.0000   1.0000   1.0000   1.0000   1.0000   1.0000   1.0000
     1.0000   1.0000   1.0000   1.0000   1.0000   1.0000   1.0000   1.0000
     1.0000   1.0000   1.0000   1.0000   1.0000   1.0000   1.0000   1.0000
     0.0000   0.0000   0.0000   0.0000   0.0000   0.0000   0.0000   0.0000
     0.0000   0.0000   0.0000   0.0000   0.0000   0.0000   0.0000   0.0000
     0.0000   0.0000   0.0000   0.0000   0.0000   0.0000   0.0000   0.0000
     0.0000   0.0000   0.0000   0.0000   0.0000   0.0000   0.0000   0.0000
     0.0000   0.0000   0.0000   0.0000   0.0000   0.0000   0.0000   0.0000
     0.0000   0.0000   0.0000   0.0000   0.0000   0.0000   0.0000   0.0000
     0.0000   0.0000   0.0000   0.0000   0.0000   0.0000   0.0000   0.0000
     0.0000   0.0000   0.0000   0.0000   0.0000   0.0000   0.0000   0.0000
     0.0000   0.0000   0.0000   0.0000   0.0000   0.0000

          k = 0.0010 0.0000-0.5427 (174156 PWs)   bands (ev):

    -7.7076  -7.7066  -7.7056  -7.6861  -7.6079  -7.6074  -7.6064  -7.5747
    -5.5580  -5.5561  -5.5517  -5.5459  -5.5298  -5.5259  -5.5150  -5.5084
    -3.8636  -3.8607  -3.8606  -3.8317  -3.8167  -3.7753  -3.7744  -3.7582
    -3.4883  -3.4564  -3.4559  -3.4470  -3.4193  -3.4191  -3.3983  -3.3724
    -3.1023  -3.0755  -3.0753  -3.0404  -2.9767  -2.9729  -2.9678  -2.9675
    -2.0232  -1.9485  -1.9344  -1.9342  -1.9316  -1.8875  -1.8767  -1.8766
    -0.7985  -0.7981  -0.7917  -0.7767  -0.7513  -0.7510  -0.7292  -0.7067
    -0.6253  -0.6244  -0.6197  -0.6166  -0.5689  -0.5684  -0.5342  -0.5214
    -0.1363  -0.0101  -0.0084  -0.0079   0.0133   0.0303   0.0308   0.0958
     0.4961   0.5691   0.5694   0.6770   0.6781   0.6793   0.6933   0.7043
     2.1502   2.1512   2.1622   2.1756   2.2022   2.2191   2.2263   2.2266
     2.3261   2.3263   2.3367   2.3654   2.3855   2.3856   2.4068   2.4085
     2.9455   2.9463   3.0885   3.0928   3.0964   3.0975   3.1041   3.1203
     3.1618   3.2245   3.2346   3.2351   3.2552   3.2560   3.2578   3.3131
     3.7353   3.7887   3.8889   3.8894   3.9035   3.9195   3.9528   3.9531
     4.0560   4.0566   4.0964   4.2059   4.3355   4.4121   4.4129   4.4325
     4.5235   4.5239   4.5446   4.6024   4.6395   4.7161   4.7169   4.7486
     5.2215   5.3511   5.3516   5.3605   5.4103   5.4688   5.4697   5.4858
     5.6246   5.6673   5.6730   5.6734   5.7894   5.7896   5.8161   5.8212
     5.8410   5.9074   5.9281   5.9284   5.9651   5.9724   5.9867   5.9873
     6.0203   6.0220   6.0222   6.0568   6.0917   6.2126   6.2897   6.2939
     6.2995   6.3000   6.3812   6.3816   6.4719   6.5889   6.5892   6.6345
     6.6816   6.6824   6.6889   6.7773   6.8431   6.8792   6.8794   6.9806
     6.9820   7.0067   7.0825   7.0839   7.1135   7.1306   7.2056   7.2101
     7.2118   7.2793   7.2796   7.2809   7.3255   7.3615   7.3918   7.3971
     7.3996   7.4232   7.4238   7.4244   7.4342   7.4640   7.4652   7.4916
     7.4917   7.5896   7.5900   7.6100   7.6169   7.6212   7.6683   7.6686
     7.6922   7.6925   7.7706   7.8176   7.8184   7.8524   7.8662   7.9246
     7.9438   7.9623   8.0063   8.0359   8.0363   8.0430   8.0768   8.0773
     8.1530   8.1536   8.2179   8.2438   8.2465   8.2793   8.3145   8.3162
     8.4657   8.4680   8.5011   8.5018   8.6073   8.6422   8.6442   8.6539
     8.7596   8.7601   8.9038   8.9249   8.9348   8.9820   8.9829   9.0457
     9.1354   9.1356   9.2393   9.2441   9.2442   9.2649   9.3559   9.3563
     9.3680   9.4581   9.4834   9.4839   9.5454   9.6846   9.7199   9.7321
     9.7324   9.7398   9.8006   9.8156   9.8593   9.8596   9.8696   9.8734
     9.8736   9.8931   9.9197   9.9263   9.9690   9.9692   9.9900  10.0035
    10.0194  10.0466  10.0468  10.0531  10.0878  10.1870  10.1873  10.1883
    10.2493  10.2731  10.2734  10.3107  10.3239  10.3734  10.3736  10.4445
    10.4507  10.4585  10.4643  10.5620  10.5841  10.5844  10.6903  10.6905
    10.7581  10.7588  10.8828  10.8968  10.9167  10.9464  10.9465  11.0230
    11.1969  11.2031  11.2893  11.3436  11.3446  11.3909  11.5012  11.5028
    11.5046  11.5793  11.5801  11.5913  11.6377  11.6387  11.6466  11.6525
    11.7917  11.8412  11.8682  11.8699  11.9005  11.9057  11.9627  11.9635
    12.0375  12.0386  12.1149  12.1373  12.2172  12.2334  12.2484  12.2491
    14.2801  14.2803  14.3642  14.4427  14.4722  14.5860  14.5860  14.6222
    14.6623  14.6623  14.6998  14.7834  14.9152  14.9155  14.9461  15.1184
    15.1460  15.1462  15.2130  15.2522  15.2658  15.3123  15.3134  15.3627
    15.4446  15.4514  15.5387  15.5393  15.5835  15.5940  15.6196  15.6198
    15.6500  15.6502  15.7481  15.7627  15.7630  15.7690  15.8763  15.8917
    15.9414  16.0919  16.0926  16.1483  16.1961  16.2430  16.2505  16.2509
    16.3672  16.3677  16.3918  16.4153  16.4621  16.5081  16.5991  16.6052
    16.6060  16.6330  16.6334  16.6772  16.7206  16.7210  16.8152  16.9105
    16.9111  16.9231  16.9272  16.9457  17.0044  17.1070

     occupation numbers 
     1.0000   1.0000   1.0000   1.0000   1.0000   1.0000   1.0000   1.0000
     1.0000   1.0000   1.0000   1.0000   1.0000   1.0000   1.0000   1.0000
     1.0000   1.0000   1.0000   1.0000   1.0000   1.0000   1.0000   1.0000
     1.0000   1.0000   1.0000   1.0000   1.0000   1.0000   1.0000   1.0000
     1.0000   1.0000   1.0000   1.0000   1.0000   1.0000   1.0000   1.0000
     1.0000   1.0000   1.0000   1.0000   1.0000   1.0000   1.0000   1.0000
     1.0000   1.0000   1.0000   1.0000   1.0000   1.0000   1.0000   1.0000
     1.0000   1.0000   1.0000   1.0000   1.0000   1.0000   1.0000   1.0000
     1.0000   1.0000   1.0000   1.0000   1.0000   1.0000   1.0000   1.0000
     1.0000   1.0000   1.0000   1.0000   1.0000   1.0000   1.0000   1.0000
     1.0000   1.0000   1.0000   1.0000   1.0000   1.0000   1.0000   1.0000
     1.0000   1.0000   1.0000   1.0000   1.0000   1.0000   1.0000   1.0000
     1.0000   1.0000   1.0000   1.0000   1.0000   1.0000   1.0000   1.0000
     1.0000   1.0000   1.0000   1.0000   1.0000   1.0000   1.0000   1.0000
     1.0000   1.0000   1.0000   1.0000   1.0000   1.0000   1.0000   1.0000
     1.0000   1.0000   1.0000   1.0000   1.0000   1.0000   1.0000   1.0000
     1.0000   1.0000   1.0000   1.0000   1.0000   1.0000   1.0000   1.0000
     1.0000   1.0000   1.0000   1.0000   1.0000   1.0000   1.0000   1.0000
     1.0000   1.0000   1.0000   1.0000   1.0000   1.0000   1.0000   1.0000
     1.0000   1.0000   1.0000   1.0000   1.0000   1.0000   1.0000   1.0000
     1.0000   1.0000   1.0000   1.0000   1.0000   1.0000   1.0000   1.0000
     1.0000   1.0000   1.0000   1.0000   1.0000   1.0000   1.0000   1.0000
     1.0000   1.0000   1.0000   1.0000   1.0000   1.0000   1.0000   1.0000
     1.0000   1.0000   1.0000   1.0000   1.0000   1.0000   1.0000   1.0000
     1.0000   1.0000   1.0000   1.0000   1.0000   1.0000   1.0000   1.0000
     1.0000   1.0000   1.0000   1.0000   1.0000   1.0000   1.0000   1.0000
     1.0000   1.0000   1.0000   1.0000   1.0000   1.0000   1.0000   1.0000
     1.0000   1.0000   1.0000   1.0000   1.0000   1.0000   1.0000   1.0000
     1.0000   1.0000   1.0000   1.0000   1.0000   1.0000   1.0000   1.0000
     1.0000   1.0000   1.0000   1.0000   1.0000   1.0000   1.0000   1.0000
     1.0000   1.0000   1.0000   1.0000   1.0000   1.0000   1.0000   1.0000
     1.0000   1.0000   1.0000   1.0000   1.0000   1.0000   1.0000   1.0000
     1.0000   1.0000   1.0000   1.0000   1.0000   1.0000   1.0000   1.0000
     1.0000   1.0000   1.0000   1.0000   1.0000   1.0000   1.0000   1.0000
     1.0000   1.0000   1.0000   1.0000   1.0000   1.0000   1.0000   1.0000
     1.0000   1.0000   1.0000   1.0000   1.0000   1.0000   1.0000   1.0000
     1.0000   1.0000   1.0000   1.0000   1.0000   1.0000   1.0000   1.0000
     1.0000   1.0000   1.0000   1.0000   1.0000   1.0000   1.0000   1.0000
     1.0000   1.0000   1.0000   1.0000   1.0000   1.0000   1.0000   1.0000
     1.0000   1.0000   1.0000   1.0000   1.0000   1.0000   1.0000   1.0000
     1.0000   1.0000   1.0000   1.0000   1.0000   1.0000   1.0000   1.0000
     1.0000   1.0000   1.0000   1.0000   1.0000   1.0000   1.0000   1.0000
     1.0000   1.0000   1.0000   1.0000   1.0000   1.0000   1.0000   1.0000
     1.0000   1.0000   1.0000   1.0000   1.0000   1.0000   1.0000   1.0000
     0.0000   0.0000   0.0000   0.0000   0.0000   0.0000   0.0000   0.0000
     0.0000   0.0000   0.0000   0.0000   0.0000   0.0000   0.0000   0.0000
     0.0000   0.0000   0.0000   0.0000   0.0000   0.0000   0.0000   0.0000
     0.0000   0.0000   0.0000   0.0000   0.0000   0.0000   0.0000   0.0000
     0.0000   0.0000   0.0000   0.0000   0.0000   0.0000   0.0000   0.0000
     0.0000   0.0000   0.0000   0.0000   0.0000   0.0000   0.0000   0.0000
     0.0000   0.0000   0.0000   0.0000   0.0000   0.0000   0.0000   0.0000
     0.0000   0.0000   0.0000   0.0000   0.0000   0.0000   0.0000   0.0000
     0.0000   0.0000   0.0000   0.0000   0.0000   0.0000

          k = 0.0000-0.6843 0.0000 (174258 PWs)   bands (ev):

    -7.7071  -7.7064  -7.7057  -7.6860  -7.6083  -7.6074  -7.6066  -7.5749
    -5.5600  -5.5577  -5.5457  -5.5427  -5.5271  -5.5245  -5.5204  -5.5126
    -3.8668  -3.8661  -3.8532  -3.8531  -3.7782  -3.7777  -3.7775  -3.7761
    -3.4598  -3.4591  -3.4427  -3.4423  -3.4265  -3.4261  -3.3909  -3.3906
    -3.1037  -3.1027  -3.0624  -3.0622  -2.9731  -2.9727  -2.9584  -2.9575
    -1.9862  -1.9860  -1.9223  -1.9220  -1.9086  -1.9084  -1.8873  -1.8872
    -0.7997  -0.7994  -0.7857  -0.7854  -0.7524  -0.7522  -0.7171  -0.7168
    -0.6377  -0.6369  -0.5979  -0.5973  -0.5617  -0.5610  -0.5463  -0.5456
    -0.0491  -0.0483  -0.0380  -0.0377   0.0267   0.0274   0.0529   0.0536
     0.6086   0.6092   0.6337   0.6340   0.6494   0.6505   0.6530   0.6533
     2.1560   2.1565   2.1620   2.1627   2.2646   2.2650   2.2717   2.2720
     2.2741   2.2746   2.2934   2.2938   2.3560   2.3564   2.4425   2.4432
     2.9683   2.9694   3.0751   3.0765   3.0785   3.0790   3.1485   3.1490
     3.1998   3.2004   3.2052   3.2057   3.2440   3.2443   3.2770   3.2776
     3.7997   3.7999   3.8644   3.8649   3.8700   3.8705   3.9802   3.9807
     4.1384   4.1390   4.2332   4.2340   4.3087   4.3095   4.3299   4.3306
     4.5527   4.5532   4.5821   4.5825   4.6486   4.6491   4.6912   4.6921
     5.3282   5.3286   5.4286   5.4290   5.4381   5.4383   5.4771   5.4777
     5.6156   5.6163   5.6422   5.6426   5.7001   5.7004   5.7337   5.7344
     5.9095   5.9105   5.9151   5.9156   5.9282   5.9293   5.9974   5.9977
     6.0850   6.0855   6.1687   6.1688   6.1713   6.1715   6.2007   6.2017
     6.3384   6.3388   6.4548   6.4553   6.4923   6.4930   6.6433   6.6439
     6.6482   6.6484   6.7900   6.7907   6.8128   6.8135   6.8654   6.8656
     7.0355   7.0380   7.0837   7.0845   7.1345   7.1351   7.1403   7.1406
     7.2062   7.2064   7.2454   7.2456   7.3533   7.3542   7.3806   7.3809
     7.4363   7.4366   7.4386   7.4391   7.4944   7.4963   7.5068   7.5079
     7.5649   7.5656   7.5775   7.5777   7.6133   7.6140   7.6922   7.6944
     7.7666   7.7670   7.8577   7.8580   7.8606   7.8611   7.8820   7.8821
     7.9038   7.9043   7.9871   7.9879   7.9970   7.9980   8.0631   8.0639
     8.1451   8.1457   8.1942   8.1947   8.3360   8.3371   8.3847   8.3853
     8.4209   8.4216   8.4622   8.4638   8.4993   8.5002   8.7093   8.7106
     8.8799   8.8808   8.9451   8.9452   8.9516   8.9519   8.9989   9.0000
     9.1246   9.1250   9.2697   9.2700   9.2831   9.2839   9.3260   9.3265
     9.3810   9.3811   9.5939   9.5942   9.6593   9.6596   9.6643   9.6645
     9.7079   9.7083   9.7623   9.7627   9.7887   9.7889   9.8306   9.8310
     9.9107   9.9110   9.9253   9.9255   9.9895   9.9897  10.0157  10.0159
    10.0391  10.0392  10.0497  10.0500  10.1074  10.1077  10.1427  10.1428
    10.2165  10.2168  10.2795  10.2797  10.3183  10.3187  10.4042  10.4044
    10.4894  10.4896  10.5059  10.5060  10.6096  10.6098  10.6540  10.6543
    10.7557  10.7562  10.7955  10.7960  10.8737  10.8741  11.0547  11.0549
    11.2130  11.2139  11.3127  11.3136  11.4523  11.4530  11.4961  11.4968
    11.5214  11.5219  11.5349  11.5369  11.6195  11.6215  11.7743  11.7753
    11.8187  11.8198  11.8438  11.8448  11.9172  11.9184  11.9762  11.9768
    12.0110  12.0121  12.0753  12.0766  12.2318  12.2335  12.3100  12.3111
    14.2782  14.2785  14.3603  14.3605  14.5310  14.5311  14.5964  14.5966
    14.6326  14.6330  14.8550  14.8552  14.9070  14.9072  14.9938  14.9939
    15.1546  15.1553  15.2340  15.2344  15.2855  15.2859  15.4402  15.4405
    15.5271  15.5275  15.5352  15.5357  15.5535  15.5536  15.5900  15.5905
    15.7882  15.7887  15.7888  15.7893  15.8342  15.8345  15.9063  15.9065
    15.9291  15.9294  15.9371  15.9375  16.1072  16.1077  16.1392  16.1396
    16.4228  16.4231  16.4386  16.4394  16.5194  16.5198  16.6037  16.6039
    16.6281  16.6294  16.6683  16.6690  16.7183  16.7189  16.7795  16.7808
    17.0136  17.0140  17.0825  17.0840  17.0864  17.0870

     occupation numbers 
     1.0000   1.0000   1.0000   1.0000   1.0000   1.0000   1.0000   1.0000
     1.0000   1.0000   1.0000   1.0000   1.0000   1.0000   1.0000   1.0000
     1.0000   1.0000   1.0000   1.0000   1.0000   1.0000   1.0000   1.0000
     1.0000   1.0000   1.0000   1.0000   1.0000   1.0000   1.0000   1.0000
     1.0000   1.0000   1.0000   1.0000   1.0000   1.0000   1.0000   1.0000
     1.0000   1.0000   1.0000   1.0000   1.0000   1.0000   1.0000   1.0000
     1.0000   1.0000   1.0000   1.0000   1.0000   1.0000   1.0000   1.0000
     1.0000   1.0000   1.0000   1.0000   1.0000   1.0000   1.0000   1.0000
     1.0000   1.0000   1.0000   1.0000   1.0000   1.0000   1.0000   1.0000
     1.0000   1.0000   1.0000   1.0000   1.0000   1.0000   1.0000   1.0000
     1.0000   1.0000   1.0000   1.0000   1.0000   1.0000   1.0000   1.0000
     1.0000   1.0000   1.0000   1.0000   1.0000   1.0000   1.0000   1.0000
     1.0000   1.0000   1.0000   1.0000   1.0000   1.0000   1.0000   1.0000
     1.0000   1.0000   1.0000   1.0000   1.0000   1.0000   1.0000   1.0000
     1.0000   1.0000   1.0000   1.0000   1.0000   1.0000   1.0000   1.0000
     1.0000   1.0000   1.0000   1.0000   1.0000   1.0000   1.0000   1.0000
     1.0000   1.0000   1.0000   1.0000   1.0000   1.0000   1.0000   1.0000
     1.0000   1.0000   1.0000   1.0000   1.0000   1.0000   1.0000   1.0000
     1.0000   1.0000   1.0000   1.0000   1.0000   1.0000   1.0000   1.0000
     1.0000   1.0000   1.0000   1.0000   1.0000   1.0000   1.0000   1.0000
     1.0000   1.0000   1.0000   1.0000   1.0000   1.0000   1.0000   1.0000
     1.0000   1.0000   1.0000   1.0000   1.0000   1.0000   1.0000   1.0000
     1.0000   1.0000   1.0000   1.0000   1.0000   1.0000   1.0000   1.0000
     1.0000   1.0000   1.0000   1.0000   1.0000   1.0000   1.0000   1.0000
     1.0000   1.0000   1.0000   1.0000   1.0000   1.0000   1.0000   1.0000
     1.0000   1.0000   1.0000   1.0000   1.0000   1.0000   1.0000   1.0000
     1.0000   1.0000   1.0000   1.0000   1.0000   1.0000   1.0000   1.0000
     1.0000   1.0000   1.0000   1.0000   1.0000   1.0000   1.0000   1.0000
     1.0000   1.0000   1.0000   1.0000   1.0000   1.0000   1.0000   1.0000
     1.0000   1.0000   1.0000   1.0000   1.0000   1.0000   1.0000   1.0000
     1.0000   1.0000   1.0000   1.0000   1.0000   1.0000   1.0000   1.0000
     1.0000   1.0000   1.0000   1.0000   1.0000   1.0000   1.0000   1.0000
     1.0000   1.0000   1.0000   1.0000   1.0000   1.0000   1.0000   1.0000
     1.0000   1.0000   1.0000   1.0000   1.0000   1.0000   1.0000   1.0000
     1.0000   1.0000   1.0000   1.0000   1.0000   1.0000   1.0000   1.0000
     1.0000   1.0000   1.0000   1.0000   1.0000   1.0000   1.0000   1.0000
     1.0000   1.0000   1.0000   1.0000   1.0000   1.0000   1.0000   1.0000
     1.0000   1.0000   1.0000   1.0000   1.0000   1.0000   1.0000   1.0000
     1.0000   1.0000   1.0000   1.0000   1.0000   1.0000   1.0000   1.0000
     1.0000   1.0000   1.0000   1.0000   1.0000   1.0000   1.0000   1.0000
     1.0000   1.0000   1.0000   1.0000   1.0000   1.0000   1.0000   1.0000
     1.0000   1.0000   1.0000   1.0000   1.0000   1.0000   1.0000   1.0000
     1.0000   1.0000   1.0000   1.0000   1.0000   1.0000   1.0000   1.0000
     1.0000   1.0000   1.0000   1.0000   1.0000   1.0000   1.0000   1.0000
     0.0000   0.0000   0.0000   0.0000   0.0000   0.0000   0.0000   0.0000
     0.0000   0.0000   0.0000   0.0000   0.0000   0.0000   0.0000   0.0000
     0.0000   0.0000   0.0000   0.0000   0.0000   0.0000   0.0000   0.0000
     0.0000   0.0000   0.0000   0.0000   0.0000   0.0000   0.0000   0.0000
     0.0000   0.0000   0.0000   0.0000   0.0000   0.0000   0.0000   0.0000
     0.0000   0.0000   0.0000   0.0000   0.0000   0.0000   0.0000   0.0000
     0.0000   0.0000   0.0000   0.0000   0.0000   0.0000   0.0000   0.0000
     0.0000   0.0000   0.0000   0.0000   0.0000   0.0000   0.0000   0.0000
     0.0000   0.0000   0.0000   0.0000   0.0000   0.0000

          k = 0.0010-0.6843-0.5427 (174256 PWs)   bands (ev):

    -7.7071  -7.7064  -7.7057  -7.6860  -7.6083  -7.6074  -7.6066  -7.5749
    -5.5601  -5.5577  -5.5456  -5.5425  -5.5273  -5.5247  -5.5203  -5.5126
    -3.8596  -3.8591  -3.8489  -3.8489  -3.7973  -3.7965  -3.7720  -3.7711
    -3.4631  -3.4626  -3.4473  -3.4466  -3.4143  -3.4138  -3.3970  -3.3966
    -3.0871  -3.0863  -3.0446  -3.0443  -3.0059  -3.0056  -2.9565  -2.9558
    -1.9888  -1.9887  -1.9195  -1.9193  -1.9064  -1.9062  -1.8901  -1.8900
    -0.7994  -0.7990  -0.7865  -0.7861  -0.7504  -0.7502  -0.7148  -0.7145
    -0.6238  -0.6228  -0.6133  -0.6129  -0.5798  -0.5792  -0.5258  -0.5251
    -0.0705  -0.0698  -0.0075  -0.0069   0.0212   0.0217   0.0486   0.0492
     0.5981   0.5989   0.6154   0.6157   0.6410   0.6413   0.6870   0.6876
     2.1528   2.1536   2.1909   2.1917   2.2262   2.2271   2.2738   2.2744
     2.2805   2.2809   2.2876   2.2879   2.3699   2.3702   2.4319   2.4327
     2.9901   2.9909   3.0590   3.0601   3.0736   3.0741   3.1423   3.1431
     3.2017   3.2019   3.2220   3.2226   3.2533   3.2539   3.2675   3.2681
     3.7890   3.7893   3.8826   3.8828   3.8953   3.8955   3.9638   3.9642
     4.1168   4.1174   4.1914   4.1925   4.3170   4.3178   4.3312   4.3321
     4.5713   4.5718   4.5776   4.5782   4.6618   4.6623   4.7018   4.7027
     5.3126   5.3134   5.4266   5.4268   5.4691   5.4701   5.4822   5.4826
     5.6167   5.6171   5.6612   5.6615   5.6778   5.6782   5.7229   5.7233
     5.8907   5.8916   5.9212   5.9216   5.9322   5.9330   5.9797   5.9802
     6.0966   6.0970   6.1075   6.1079   6.1820   6.1821   6.2120   6.2130
     6.3944   6.3950   6.4810   6.4816   6.5603   6.5606   6.5820   6.5823
     6.6295   6.6301   6.7267   6.7269   6.7890   6.7894   6.9565   6.9567
     7.0230   7.0233   7.0241   7.0253   7.0981   7.0982   7.1816   7.1825
     7.2094   7.2099   7.2687   7.2697   7.3547   7.3554   7.3939   7.3951
     7.4057   7.4062   7.4447   7.4449   7.4509   7.4518   7.5476   7.5498
     7.5519   7.5522   7.6116   7.6121   7.6547   7.6567   7.7036   7.7040
     7.7315   7.7334   7.7651   7.7655   7.8378   7.8382   7.8885   7.8887
     7.9141   7.9145   8.0318   8.0322   8.0405   8.0410   8.1142   8.1149
     8.1403   8.1413   8.1945   8.1954   8.2805   8.2812   8.3915   8.3930
     8.4271   8.4278   8.4832   8.4837   8.5729   8.5755   8.6788   8.6804
     8.7773   8.7776   8.9286   8.9288   8.9688   8.9691   9.0130   9.0140
     9.1392   9.1395   9.2423   9.2427   9.2596   9.2601   9.3716   9.3720
     9.3753   9.3755   9.5168   9.5173   9.6166   9.6170   9.7021   9.7024
     9.7205   9.7207   9.7885   9.7887   9.8414   9.8416   9.8785   9.8786
     9.8913   9.8918   9.9325   9.9327   9.9385   9.9391   9.9986   9.9987
    10.0171  10.0172  10.0660  10.0663  10.1390  10.1390  10.2156  10.2157
    10.2177  10.2180  10.2506  10.2507  10.3406  10.3407  10.3451  10.3451
    10.4003  10.4006  10.4826  10.4828  10.6398  10.6400  10.6967  10.6970
    10.7630  10.7632  10.8837  10.8841  10.9113  10.9115  10.9991  10.9997
    11.2141  11.2152  11.3319  11.3328  11.3467  11.3473  11.4415  11.4429
    11.5367  11.5370  11.6393  11.6403  11.6480  11.6496  11.6947  11.6949
    11.8403  11.8411  11.8593  11.8606  11.9307  11.9314  11.9806  11.9821
    12.0338  12.0347  12.1067  12.1086  12.1549  12.1555  12.2997  12.3009
    14.3222  14.3226  14.3987  14.3988  14.5230  14.5232  14.5437  14.5439
    14.6278  14.6282  14.7335  14.7338  15.0776  15.0777  15.0971  15.0975
    15.1656  15.1664  15.1956  15.1959  15.3292  15.3293  15.3418  15.3422
    15.4289  15.4290  15.4697  15.4701  15.6129  15.6134  15.6598  15.6599
    15.7340  15.7344  15.7803  15.7805  15.7962  15.7966  15.9435  15.9438
    16.0022  16.0025  16.0075  16.0077  16.0937  16.0940  16.1542  16.1549
    16.2707  16.2710  16.3010  16.3021  16.4316  16.4325  16.5984  16.5991
    16.6189  16.6196  16.6401  16.6405  16.8574  16.8582  16.9126  16.9129
[...]
     0.0000   0.0000   0.0000   0.0000   0.0000   0.0000   0.0000   0.0000
     0.0000   0.0000   0.0000   0.0000   0.0000   0.0000   0.0000   0.0000
     0.0000   0.0000   0.0000   0.0000   0.0000   0.0000   0.0000   0.0000
     0.0000   0.0000   0.0000   0.0000   0.0000   0.0000

          k =-0.5000-0.6843-0.0248 (174180 PWs)   bands (ev):

    -7.7068  -7.7064  -7.7060  -7.6860  -7.6078  -7.6074  -7.6070  -7.5749
    -5.5541  -5.5536  -5.5535  -5.5484  -5.5232  -5.5226  -5.5225  -5.5128
    -3.8612  -3.8604  -3.8603  -3.8596  -3.7775  -3.7770  -3.7768  -3.7753
    -3.4564  -3.4552  -3.4547  -3.4544  -3.4057  -3.4053  -3.4048  -3.4041
    -3.0851  -3.0836  -3.0833  -3.0824  -2.9658  -2.9642  -2.9639  -2.9631
    -1.9574  -1.9561  -1.9558  -1.9548  -1.8980  -1.8967  -1.8964  -1.8953
    -0.7932  -0.7925  -0.7918  -0.7917  -0.7325  -0.7319  -0.7312  -0.7311
    -0.6268  -0.6251  -0.6247  -0.6242  -0.5490  -0.5474  -0.5469  -0.5465
    -0.0494  -0.0479  -0.0476  -0.0471   0.0423   0.0441   0.0443   0.0449
     0.6192   0.6209   0.6212   0.6221   0.6504   0.6520   0.6524   0.6532
     2.1607   2.1617   2.1622   2.1624   2.2465   2.2469   2.2478   2.2482
     2.3006   2.3011   2.3020   2.3025   2.3971   2.3982   2.3987   2.3988
     3.0291   3.0312   3.0318   3.0320   3.0848   3.0862   3.0863   3.0867
     3.2143   3.2154   3.2158   3.2160   3.2670   3.2683   3.2686   3.2690
     3.8350   3.8364   3.8367   3.8375   3.9256   3.9268   3.9271   3.9276
     4.1747   4.1761   4.1766   4.1767   4.3253   4.3270   4.3276   4.3277
     4.5615   4.5619   4.5622   4.5630   4.6755   4.6756   4.6758   4.6771
     5.3554   5.3567   5.3570   5.3577   5.4542   5.4555   5.4559   5.4565
     5.6329   5.6343   5.6345   5.6350   5.7151   5.7164   5.7165   5.7167
     5.9038   5.9044   5.9046   5.9057   5.9900   5.9906   5.9906   5.9908
     6.1310   6.1318   6.1323   6.1327   6.2136   6.2144   6.2149   6.2156
     6.3522   6.3527   6.3528   6.3535   6.6025   6.6028   6.6029   6.6041
     6.6459   6.6468   6.6471   6.6478   6.8814   6.8823   6.8828   6.8829
     7.0742   7.0745   7.0751   7.0773   7.1456   7.1464   7.1470   7.1473
     7.2461   7.2464   7.2465   7.2478   7.3683   7.3687   7.3688   7.3690
     7.4115   7.4124   7.4128   7.4133   7.4730   7.4734   7.4737   7.4743
     7.5301   7.5304   7.5307   7.5316   7.6568   7.6571   7.6575   7.6598
     7.7775   7.7782   7.7784   7.7795   7.9100   7.9102   7.9106   7.9114
     7.9783   7.9785   7.9788   7.9801   8.0687   8.0690   8.0693   8.0698
     8.1643   8.1646   8.1653   8.1661   8.3278   8.3280   8.3284   8.3303
     8.4293   8.4295   8.4301   8.4306   8.6157   8.6162   8.6164   8.6182
     8.9086   8.9094   8.9102   8.9112   8.9857   8.9860   8.9863   8.9877
     9.2214   9.2218   9.2221   9.2232   9.3267   9.3278   9.3280   9.3288
     9.4966   9.4977   9.4978   9.4982   9.5733   9.5739   9.5740   9.5743
     9.7585   9.7587   9.7590   9.7596   9.7850   9.7858   9.7860   9.7865
     9.9143   9.9146   9.9147   9.9147   9.9561   9.9565   9.9568   9.9572
    10.0626  10.0628  10.0635  10.0638  10.1288  10.1294  10.1297  10.1301
    10.2645  10.2648  10.2650  10.2652  10.3960  10.3962  10.3964  10.3966
    10.5278  10.5283  10.5284  10.5286  10.5770  10.5777  10.5780  10.5786
    10.8141  10.8148  10.8155  10.8155  10.9497  10.9501  10.9505  10.9508
    11.2649  11.2653  11.2656  11.2671  11.4532  11.4540  11.4546  11.4549
    11.5416  11.5421  11.5425  11.5455  11.6999  11.7012  11.7018  11.7026
    11.8325  11.8330  11.8333  11.8351  11.9617  11.9623  11.9627  11.9643
    12.0363  12.0389  12.0391  12.0397  12.2667  12.2695  12.2696  12.2702
    14.3539  14.3544  14.3547  14.3554  14.5539  14.5550  14.5554  14.5560
    14.6327  14.6335  14.6340  14.6344  15.0508  15.0510  15.0515  15.0519
    15.1735  15.1738  15.1745  15.1749  15.3078  15.3090  15.3097  15.3100
    15.5042  15.5043  15.5048  15.5052  15.5884  15.5893  15.5898  15.5901
    15.8111  15.8114  15.8116  15.8119  15.8838  15.8850  15.8852  15.8854
    15.9488  15.9494  15.9496  15.9497  16.1575  16.1580  16.1581  16.1588
    16.4426  16.4434  16.4435  16.4439  16.5288  16.5294  16.5296  16.5302
    16.6341  16.6346  16.6350  16.6355  16.8121  16.8124  16.8129  16.8136
    16.9018  16.9025  16.9029  16.9037  17.1233  17.1238

     occupation numbers 
     1.0000   1.0000   1.0000   1.0000   1.0000   1.0000   1.0000   1.0000
     1.0000   1.0000   1.0000   1.0000   1.0000   1.0000   1.0000   1.0000
     1.0000   1.0000   1.0000   1.0000   1.0000   1.0000   1.0000   1.0000
     1.0000   1.0000   1.0000   1.0000   1.0000   1.0000   1.0000   1.0000
     1.0000   1.0000   1.0000   1.0000   1.0000   1.0000   1.0000   1.0000
     1.0000   1.0000   1.0000   1.0000   1.0000   1.0000   1.0000   1.0000
     1.0000   1.0000   1.0000   1.0000   1.0000   1.0000   1.0000   1.0000
     1.0000   1.0000   1.0000   1.0000   1.0000   1.0000   1.0000   1.0000
     1.0000   1.0000   1.0000   1.0000   1.0000   1.0000   1.0000   1.0000
     1.0000   1.0000   1.0000   1.0000   1.0000   1.0000   1.0000   1.0000
     1.0000   1.0000   1.0000   1.0000   1.0000   1.0000   1.0000   1.0000
     1.0000   1.0000   1.0000   1.0000   1.0000   1.0000   1.0000   1.0000
     1.0000   1.0000   1.0000   1.0000   1.0000   1.0000   1.0000   1.0000
     1.0000   1.0000   1.0000   1.0000   1.0000   1.0000   1.0000   1.0000
     1.0000   1.0000   1.0000   1.0000   1.0000   1.0000   1.0000   1.0000
     1.0000   1.0000   1.0000   1.0000   1.0000   1.0000   1.0000   1.0000
     1.0000   1.0000   1.0000   1.0000   1.0000   1.0000   1.0000   1.0000
     1.0000   1.0000   1.0000   1.0000   1.0000   1.0000   1.0000   1.0000
     1.0000   1.0000   1.0000   1.0000   1.0000   1.0000   1.0000   1.0000
     1.0000   1.0000   1.0000   1.0000   1.0000   1.0000   1.0000   1.0000
     1.0000   1.0000   1.0000   1.0000   1.0000   1.0000   1.0000   1.0000
     1.0000   1.0000   1.0000   1.0000   1.0000   1.0000   1.0000   1.0000
     1.0000   1.0000   1.0000   1.0000   1.0000   1.0000   1.0000   1.0000
     1.0000   1.0000   1.0000   1.0000   1.0000   1.0000   1.0000   1.0000
     1.0000   1.0000   1.0000   1.0000   1.0000   1.0000   1.0000   1.0000
     1.0000   1.0000   1.0000   1.0000   1.0000   1.0000   1.0000   1.0000
     1.0000   1.0000   1.0000   1.0000   1.0000   1.0000   1.0000   1.0000
     1.0000   1.0000   1.0000   1.0000   1.0000   1.0000   1.0000   1.0000
     1.0000   1.0000   1.0000   1.0000   1.0000   1.0000   1.0000   1.0000
     1.0000   1.0000   1.0000   1.0000   1.0000   1.0000   1.0000   1.0000
     1.0000   1.0000   1.0000   1.0000   1.0000   1.0000   1.0000   1.0000
     1.0000   1.0000   1.0000   1.0000   1.0000   1.0000   1.0000   1.0000
     1.0000   1.0000   1.0000   1.0000   1.0000   1.0000   1.0000   1.0000
     1.0000   1.0000   1.0000   1.0000   1.0000   1.0000   1.0000   1.0000
     1.0000   1.0000   1.0000   1.0000   1.0000   1.0000   1.0000   1.0000
     1.0000   1.0000   1.0000   1.0000   1.0000   1.0000   1.0000   1.0000
     1.0000   1.0000   1.0000   1.0000   1.0000   1.0000   1.0000   1.0000
     1.0000   1.0000   1.0000   1.0000   1.0000   1.0000   1.0000   1.0000
     1.0000   1.0000   1.0000   1.0000   1.0000   1.0000   1.0000   1.0000
     1.0000   1.0000   1.0000   1.0000   1.0000   1.0000   1.0000   1.0000
     1.0000   1.0000   1.0000   1.0000   1.0000   1.0000   1.0000   1.0000
     1.0000   1.0000   1.0000   1.0000   1.0000   1.0000   1.0000   1.0000
     1.0000   1.0000   1.0000   1.0000   1.0000   1.0000   1.0000   1.0000
     1.0000   1.0000   1.0000   1.0000   1.0000   1.0000   1.0000   1.0000
     0.0000   0.0000   0.0000   0.0000   0.0000   0.0000   0.0000   0.0000
     0.0000   0.0000   0.0000   0.0000   0.0000   0.0000   0.0000   0.0000
     0.0000   0.0000   0.0000   0.0000   0.0000   0.0000   0.0000   0.0000
     0.0000   0.0000   0.0000   0.0000   0.0000   0.0000   0.0000   0.0000
     0.0000   0.0000   0.0000   0.0000   0.0000   0.0000   0.0000   0.0000
     0.0000   0.0000   0.0000   0.0000   0.0000   0.0000   0.0000   0.0000
     0.0000   0.0000   0.0000   0.0000   0.0000   0.0000   0.0000   0.0000
     0.0000   0.0000   0.0000   0.0000   0.0000   0.0000   0.0000   0.0000
     0.0000   0.0000   0.0000   0.0000   0.0000   0.0000

          k =-0.4990-0.6843-0.5675 (174180 PWs)   bands (ev):

    -7.7068  -7.7064  -7.7060  -7.6860  -7.6078  -7.6074  -7.6070  -7.5749
    -5.5541  -5.5536  -5.5535  -5.5484  -5.5232  -5.5227  -5.5225  -5.5128
    -3.8561  -3.8556  -3.8551  -3.8548  -3.7837  -3.7833  -3.7829  -3.7816
    -3.4584  -3.4570  -3.4569  -3.4563  -3.4039  -3.4033  -3.4032  -3.4022
    -3.0734  -3.0720  -3.0715  -3.0707  -2.9764  -2.9749  -2.9744  -2.9737
    -1.9583  -1.9570  -1.9566  -1.9556  -1.8974  -1.8961  -1.8958  -1.8947
    -0.7937  -0.7930  -0.7923  -0.7922  -0.7312  -0.7306  -0.7298  -0.7298
    -0.6220  -0.6202  -0.6198  -0.6193  -0.5533  -0.5516  -0.5513  -0.5508
    -0.0479  -0.0464  -0.0460  -0.0456   0.0415   0.0431   0.0436   0.0440
     0.6014   0.6030   0.6036   0.6040   0.6666   0.6680   0.6686   0.6691
     2.1655   2.1667   2.1672   2.1675   2.2413   2.2422   2.2429   2.2433
     2.3003   2.3012   2.3016   2.3018   2.3950   2.3962   2.3968   2.3968
     3.0263   3.0281   3.0285   3.0286   3.0914   3.0931   3.0939   3.0941
     3.2170   3.2184   3.2184   3.2189   3.2664   3.2678   3.2681   3.2685
     3.8402   3.8415   3.8418   3.8427   3.9299   3.9313   3.9315   3.9323
     4.1416   4.1435   4.1437   4.1442   4.3273   4.3291   4.3294   4.3298
     4.5797   4.5800   4.5805   4.5813   4.6753   4.6756   4.6757   4.6768
     5.3455   5.3468   5.3471   5.3480   5.4764   5.4780   5.4784   5.4790
     5.6373   5.6382   5.6384   5.6387   5.7172   5.7179   5.7186   5.7187
     5.9241   5.9246   5.9247   5.9259   5.9572   5.9577   5.9580   5.9585
     6.1306   6.1318   6.1320   6.1323   6.2000   6.2007   6.2009   6.2019
     6.3649   6.3650   6.3652   6.3660   6.5615   6.5621   6.5624   6.5634
     6.6353   6.6362   6.6364   6.6370   6.9453   6.9456   6.9461   6.9462
     7.0253   7.0256   7.0259   7.0280   7.1668   7.1669   7.1670   7.1684
     7.2409   7.2419   7.2422   7.2430   7.3447   7.3448   7.3452   7.3463
     7.4500   7.4507   7.4509   7.4516   7.4837   7.4841   7.4844   7.4851
     7.5730   7.5731   7.5733   7.5750   7.6591   7.6596   7.6597   7.6633
     7.7737   7.7738   7.7741   7.7753   7.8857   7.8859   7.8863   7.8865
     7.9279   7.9284   7.9286   7.9293   8.0819   8.0824   8.0830   8.0840
     8.2033   8.2036   8.2042   8.2046   8.3132   8.3133   8.3137   8.3155
     8.4068   8.4075   8.4076   8.4088   8.6366   8.6369   8.6371   8.6395
     8.8828   8.8838   8.8842   8.8850   8.9781   8.9785   8.9789   8.9802
     9.2101   9.2105   9.2108   9.2118   9.3169   9.3180   9.3181   9.3191
     9.4889   9.4897   9.4900   9.4902   9.6283   9.6287   9.6289   9.6291
     9.7789   9.7795   9.7798   9.7804   9.8354   9.8358   9.8364   9.8366
     9.9016   9.9023   9.9027   9.9029   9.9479   9.9481   9.9485   9.9489
    10.0070  10.0077  10.0079  10.0085  10.1481  10.1485  10.1490  10.1493
    10.2122  10.2125  10.2126  10.2127  10.3817  10.3822  10.3827  10.3828
    10.5081  10.5085  10.5088  10.5092  10.6496  10.6503  10.6505  10.6507
    10.8152  10.8157  10.8158  10.8161  10.9541  10.9547  10.9549  10.9550
    11.2774  11.2779  11.2782  11.2796  11.4230  11.4238  11.4242  11.4249
    11.5581  11.5592  11.5595  11.5617  11.6762  11.6770  11.6772  11.6784
    11.8534  11.8537  11.8541  11.8559  11.9612  11.9616  11.9621  11.9633
    12.0556  12.0580  12.0584  12.0584  12.2376  12.2398  12.2405  12.2406
    14.4166  14.4171  14.4175  14.4177  14.5040  14.5047  14.5048  14.5052
    14.6083  14.6094  14.6097  14.6107  15.1327  15.1334  15.1338  15.1343
    15.1876  15.1885  15.1887  15.1888  15.2905  15.2909  15.2914  15.2917
    15.4381  15.4384  15.4386  15.4390  15.5948  15.5958  15.5963  15.5969
    15.8033  15.8036  15.8036  15.8042  15.8989  15.8995  15.8996  15.8998
    16.0001  16.0008  16.0011  16.0020  16.1755  16.1759  16.1761  16.1765
    16.2330  16.2335  16.2339  16.2357  16.5083  16.5092  16.5096  16.5099
    16.6622  16.6627  16.6629  16.6630  16.8402  16.8409  16.8411  16.8420
    17.0887  17.0897  17.0900  17.0903  17.1365  17.1369

     occupation numbers 
     1.0000   1.0000   1.0000   1.0000   1.0000   1.0000   1.0000   1.0000
     1.0000   1.0000   1.0000   1.0000   1.0000   1.0000   1.0000   1.0000
     1.0000   1.0000   1.0000   1.0000   1.0000   1.0000   1.0000   1.0000
     1.0000   1.0000   1.0000   1.0000   1.0000   1.0000   1.0000   1.0000
     1.0000   1.0000   1.0000   1.0000   1.0000   1.0000   1.0000   1.0000
     1.0000   1.0000   1.0000   1.0000   1.0000   1.0000   1.0000   1.0000
     1.0000   1.0000   1.0000   1.0000   1.0000   1.0000   1.0000   1.0000
     1.0000   1.0000   1.0000   1.0000   1.0000   1.0000   1.0000   1.0000
     1.0000   1.0000   1.0000   1.0000   1.0000   1.0000   1.0000   1.0000
     1.0000   1.0000   1.0000   1.0000   1.0000   1.0000   1.0000   1.0000
     1.0000   1.0000   1.0000   1.0000   1.0000   1.0000   1.0000   1.0000
     1.0000   1.0000   1.0000   1.0000   1.0000   1.0000   1.0000   1.0000
     1.0000   1.0000   1.0000   1.0000   1.0000   1.0000   1.0000   1.0000
     1.0000   1.0000   1.0000   1.0000   1.0000   1.0000   1.0000   1.0000
     1.0000   1.0000   1.0000   1.0000   1.0000   1.0000   1.0000   1.0000
     1.0000   1.0000   1.0000   1.0000   1.0000   1.0000   1.0000   1.0000
     1.0000   1.0000   1.0000   1.0000   1.0000   1.0000   1.0000   1.0000
     1.0000   1.0000   1.0000   1.0000   1.0000   1.0000   1.0000   1.0000
     1.0000   1.0000   1.0000   1.0000   1.0000   1.0000   1.0000   1.0000
     1.0000   1.0000   1.0000   1.0000   1.0000   1.0000   1.0000   1.0000
     1.0000   1.0000   1.0000   1.0000   1.0000   1.0000   1.0000   1.0000
     1.0000   1.0000   1.0000   1.0000   1.0000   1.0000   1.0000   1.0000
     1.0000   1.0000   1.0000   1.0000   1.0000   1.0000   1.0000   1.0000
     1.0000   1.0000   1.0000   1.0000   1.0000   1.0000   1.0000   1.0000
     1.0000   1.0000   1.0000   1.0000   1.0000   1.0000   1.0000   1.0000
     1.0000   1.0000   1.0000   1.0000   1.0000   1.0000   1.0000   1.0000
     1.0000   1.0000   1.0000   1.0000   1.0000   1.0000   1.0000   1.0000
     1.0000   1.0000   1.0000   1.0000   1.0000   1.0000   1.0000   1.0000
     1.0000   1.0000   1.0000   1.0000   1.0000   1.0000   1.0000   1.0000
     1.0000   1.0000   1.0000   1.0000   1.0000   1.0000   1.0000   1.0000
     1.0000   1.0000   1.0000   1.0000   1.0000   1.0000   1.0000   1.0000
     1.0000   1.0000   1.0000   1.0000   1.0000   1.0000   1.0000   1.0000
     1.0000   1.0000   1.0000   1.0000   1.0000   1.0000   1.0000   1.0000
     1.0000   1.0000   1.0000   1.0000   1.0000   1.0000   1.0000   1.0000
     1.0000   1.0000   1.0000   1.0000   1.0000   1.0000   1.0000   1.0000
     1.0000   1.0000   1.0000   1.0000   1.0000   1.0000   1.0000   1.0000
     1.0000   1.0000   1.0000   1.0000   1.0000   1.0000   1.0000   1.0000
     1.0000   1.0000   1.0000   1.0000   1.0000   1.0000   1.0000   1.0000
     1.0000   1.0000   1.0000   1.0000   1.0000   1.0000   1.0000   1.0000
     1.0000   1.0000   1.0000   1.0000   1.0000   1.0000   1.0000   1.0000
     1.0000   1.0000   1.0000   1.0000   1.0000   1.0000   1.0000   1.0000
     1.0000   1.0000   1.0000   1.0000   1.0000   1.0000   1.0000   1.0000
     1.0000   1.0000   1.0000   1.0000   1.0000   1.0000   1.0000   1.0000
     1.0000   1.0000   1.0000   1.0000   1.0000   1.0000   1.0000   1.0000
     0.0000   0.0000   0.0000   0.0000   0.0000   0.0000   0.0000   0.0000
     0.0000   0.0000   0.0000   0.0000   0.0000   0.0000   0.0000   0.0000
     0.0000   0.0000   0.0000   0.0000   0.0000   0.0000   0.0000   0.0000
     0.0000   0.0000   0.0000   0.0000   0.0000   0.0000   0.0000   0.0000
     0.0000   0.0000   0.0000   0.0000   0.0000   0.0000   0.0000   0.0000
     0.0000   0.0000   0.0000   0.0000   0.0000   0.0000   0.0000   0.0000
     0.0000   0.0000   0.0000   0.0000   0.0000   0.0000   0.0000   0.0000
     0.0000   0.0000   0.0000   0.0000   0.0000   0.0000   0.0000   0.0000
     0.0000   0.0000   0.0000   0.0000   0.0000   0.0000

     the Fermi energy is    12.5770 ev

!    total energy              =   -1468.64942878 Ry
     Harris-Foulkes estimate   =   -1468.64942878 Ry
     estimated scf accuracy    <          5.5E-09 Ry

     The total energy is the sum of the following terms:

     one-electron contribution =   -1543.58786267 Ry
     hartree contribution      =     916.69226637 Ry
     xc contribution           =     -22.44596167 Ry
     ewald contribution        =    -819.30787082 Ry
     smearing contrib. (-TS)   =      -0.00000000 Ry

     convergence has been achieved in  17 iterations

     Writing output data file ./vdW-DF.save/
 
     init_run     :    336.30s CPU    348.19s WALL (       1 calls)
     electrons    :  12032.61s CPU  12509.61s WALL (       1 calls)

     Called by init_run:
     wfcinit      :    280.56s CPU    287.73s WALL (       1 calls)
     wfcinit:atom :      0.96s CPU      1.86s WALL (       8 calls)
     wfcinit:wfcr :    273.41s CPU    278.34s WALL (       8 calls)
     potinit      :     19.32s CPU     19.63s WALL (       1 calls)
     hinit0       :     27.13s CPU     27.23s WALL (       1 calls)

     Called by electrons:
     c_bands      :  10506.82s CPU  10797.30s WALL (      17 calls)
     sum_band     :   1389.06s CPU   1487.66s WALL (      17 calls)
     v_of_rho     :     33.23s CPU     40.98s WALL (      18 calls)
     v_h          :      3.95s CPU      5.19s WALL (      18 calls)
     v_xc         :     29.28s CPU     35.79s WALL (      18 calls)
     newd         :     98.72s CPU    180.11s WALL (      18 calls)
     mix_rho      :      7.51s CPU      9.28s WALL (      17 calls)

     Called by c_bands:
     init_us_2    :     75.50s CPU     78.33s WALL (     280 calls)
     cegterg      :  10330.76s CPU  10612.12s WALL (     136 calls)

     Called by sum_band:
     sum_band:bec :      0.77s CPU      0.77s WALL (     136 calls)
     addusdens    :    141.29s CPU    221.09s WALL (      17 calls)

     Called by *egterg:
     h_psi        :   6024.43s CPU   6147.03s WALL (     726 calls)
     s_psi        :   1133.50s CPU   1136.08s WALL (     726 calls)
     g_psi        :     16.37s CPU     16.42s WALL (     582 calls)
     cdiaghg      :   1039.37s CPU   1066.38s WALL (     718 calls)
     cegterg:over :   1026.55s CPU   1042.56s WALL (     582 calls)
     cegterg:upda :    741.27s CPU    783.43s WALL (     582 calls)
     cegterg:last :    322.12s CPU    326.85s WALL (     136 calls)
     cdiaghg:chol :     38.54s CPU     38.80s WALL (     718 calls)
     cdiaghg:inve :     14.02s CPU     14.06s WALL (     718 calls)
     cdiaghg:para :    185.11s CPU    198.78s WALL (    1436 calls)

     Called by h_psi:
     h_psi:calbec :   1109.66s CPU   1121.78s WALL (     726 calls)
     vloc_psi     :   3766.41s CPU   3848.03s WALL (     726 calls)
     add_vuspsi   :   1135.64s CPU   1139.01s WALL (     726 calls)

     General routines
     calbec       :   1490.13s CPU   1504.43s WALL (     862 calls)
     fft          :     36.49s CPU     41.18s WALL (     232 calls)
     ffts         :      0.86s CPU      0.95s WALL (      35 calls)
     fftw         :   3627.87s CPU   3717.55s WALL (  376766 calls)
     interpolate  :      3.65s CPU      3.88s WALL (      18 calls)
 
     Parallel routines
     fft_scatt_xy :    869.85s CPU    872.57s WALL (  377033 calls)
     fft_scatt_yz :    581.82s CPU    664.21s WALL (  377033 calls)
 
     PWSCF        :      3h26m CPU      3h34m WALL

 
   This run was terminated on:  17:17: 1  16Jan2020            

=------------------------------------------------------------------------------=
   JOB DONE.
=------------------------------------------------------------------------------=
