
     Program PWSCF v.6.5 starts on 16Jan2020 at 15:25:16 

     This program is part of the open-source Quantum ESPRESSO suite
     for quantum simulation of materials; please cite
         "P. Giannozzi et al., J. Phys.:Condens. Matter 21 395502 (2009);
         "P. Giannozzi et al., J. Phys.:Condens. Matter 29 465901 (2017);
          URL http://www.quantum-espresso.org", 
     in publications or presentations arising from this work. More details at
     http://www.quantum-espresso.org/quote

     Parallel version (MPI & OpenMP), running on      16 processor cores
     Number of MPI processes:                16
     Threads/MPI process:                     1

     MPI processes distributed on     2 nodes
     R & G space division:  proc/nbgrp/npool/nimage =      16
     Waiting for input...
     Reading input from standard input

     Current dimensions of program PWSCF are:
     Max number of different atomic species (ntypx) = 10
     Max number of k-points (npk) =  40000
     Max angular momentum in pseudopotentials (lmaxx) =  3

     IMPORTANT: XC functional enforced from input :
     Exchange-correlation= PBE0
                           (   6   4   8   4   0   0   0)
     EXX-fraction              =        0.25
     Any further DFT definition will be discarded
     Please, verify this is what you really want


     --------------------------------------------
     Parameters for DFT-D3 Dispersion Correction:
     --------------------------------------------
       Reference C6 values for interpolation: 

         atom   Coordination number   C6
         H          0.912             6.05
         H          0.000            15.18
         C          0.000            98.23
         C          0.987            86.49
         C          1.998            58.72
         C          2.999            51.56
         C          3.984            36.41
         N          0.000            50.54
         N          0.994            44.25
         N          2.014            39.35
         N          2.990            31.16
         O          0.000            31.01
         O          0.993            25.63
         O          1.989            20.74

       Values used:

         atom   Coordination number  R0_AB[au]  C6      C8
         O          1.084            2.345     25.48    514.23
         O          1.086            2.345     25.48    514.15
         O          1.086            2.345     25.48    514.15
         O          1.086            2.345     25.48    514.15
         O          1.086            2.345     25.48    514.15
         O          1.086            2.345     25.48    514.15
         O          1.086            2.345     25.48    514.15
         O          1.086            2.345     25.48    514.15
         N          3.246            2.478     31.19    687.99
         N          3.247            2.478     31.19    687.99
         N          3.247            2.478     31.19    687.99
         N          3.247            2.478     31.19    687.99
         N          3.247            2.478     31.19    687.99
         N          3.247            2.478     31.19    687.99
         N          3.247            2.478     31.19    687.99
         N          3.247            2.478     31.19    687.99
         N          3.102            2.478     31.23    689.04
         N          3.103            2.478     31.23    689.02
         N          3.103            2.478     31.23    689.02
         N          3.103            2.478     31.23    689.02
         N          3.103            2.478     31.23    689.02
         N          3.103            2.478     31.23    689.02
         N          3.103            2.478     31.23    689.02
         N          3.103            2.478     31.23    689.02
         H          1.012            2.062      6.17     74.59
         H          1.012            2.062      6.17     74.59
         H          1.012            2.062      6.17     74.59
         H          1.012            2.062      6.17     74.59
         H          1.012            2.062      6.17     74.59
         H          1.012            2.062      6.17     74.59
         H          1.012            2.062      6.17     74.59
         H          1.012            2.062      6.17     74.59
         H          1.014            2.062      6.17     74.57
         H          1.014            2.062      6.17     74.57
         H          1.014            2.062      6.17     74.57
         H          1.014            2.062      6.17     74.57
         H          1.014            2.062      6.17     74.57
         H          1.014            2.062      6.17     74.57
         H          1.014            2.062      6.17     74.57
         H          1.014            2.062      6.17     74.57
         H          1.007            2.062      6.18     74.65
         H          1.007            2.062      6.18     74.65
         H          1.007            2.062      6.18     74.65
         H          1.007            2.062      6.18     74.65
         H          1.007            2.062      6.18     74.65
         H          1.007            2.062      6.18     74.65
         H          1.007            2.062      6.18     74.65
         H          1.007            2.062      6.18     74.65
         H          1.008            2.062      6.17     74.63
         H          1.008            2.062      6.17     74.63
         H          1.008            2.062      6.17     74.63
         H          1.008            2.062      6.17     74.63
         H          1.008            2.062      6.17     74.63
         H          1.008            2.062      6.17     74.63
         H          1.008            2.062      6.17     74.63
         H          1.008            2.062      6.17     74.63
         H          1.007            2.062      6.17     74.64
         H          1.007            2.062      6.17     74.64
         H          1.007            2.062      6.17     74.64
         H          1.007            2.062      6.17     74.64
         H          1.007            2.062      6.17     74.64
         H          1.007            2.062      6.17     74.64
         H          1.007            2.062      6.17     74.64
         H          1.007            2.062      6.17     74.64
         H          1.008            2.062      6.17     74.63
         H          1.008            2.062      6.17     74.63
         H          1.008            2.062      6.17     74.63
         H          1.008            2.062      6.17     74.63
         H          1.008            2.062      6.17     74.63
         H          1.008            2.062      6.17     74.63
         H          1.008            2.062      6.17     74.63
         H          1.008            2.062      6.17     74.63
         H          1.007            2.062      6.18     74.65
         H          1.007            2.062      6.18     74.65
         H          1.007            2.062      6.18     74.65
         H          1.007            2.062      6.18     74.65
         H          1.007            2.062      6.18     74.65
         H          1.007            2.062      6.18     74.65
         H          1.007            2.062      6.18     74.65
         H          1.007            2.062      6.18     74.65
         H          1.008            2.062      6.17     74.64
         H          1.008            2.062      6.17     74.64
         H          1.008            2.062      6.17     74.64
         H          1.008            2.062      6.17     74.64
         H          1.008            2.062      6.17     74.64
         H          1.008            2.062      6.17     74.64
         H          1.008            2.062      6.17     74.64
         H          1.008            2.062      6.17     74.64
         H          1.007            2.062      6.17     74.64
         H          1.007            2.062      6.17     74.64
         H          1.007            2.062      6.17     74.64
         H          1.007            2.062      6.17     74.64
         H          1.007            2.062      6.17     74.64
         H          1.007            2.062      6.17     74.64
         H          1.007            2.062      6.17     74.64
         H          1.007            2.062      6.17     74.64
         H          1.007            2.062      6.17     74.64
         H          1.007            2.062      6.17     74.64
         H          1.007            2.062      6.17     74.64
         H          1.007            2.062      6.17     74.64
         H          1.007            2.062      6.17     74.64
         H          1.007            2.062      6.17     74.64
         H          1.007            2.062      6.17     74.64
         H          1.007            2.062      6.17     74.64
         H          1.008            2.062      6.17     74.63
         H          1.008            2.062      6.17     74.63
         H          1.008            2.062      6.17     74.63
         H          1.008            2.062      6.17     74.63
         H          1.008            2.062      6.17     74.63
         H          1.008            2.062      6.17     74.63
         H          1.008            2.062      6.17     74.63
         H          1.008            2.062      6.17     74.63
         H          1.009            2.062      6.17     74.63
         H          1.009            2.062      6.17     74.63
         H          1.009            2.062      6.17     74.63
         H          1.009            2.062      6.17     74.63
         H          1.009            2.062      6.17     74.63
         H          1.009            2.062      6.17     74.63
         H          1.009            2.062      6.17     74.63
         H          1.009            2.062      6.17     74.63
         C          3.153            2.750     50.51   1460.72
         C          3.153            2.750     50.51   1460.72
         C          3.153            2.750     50.51   1460.72
         C          3.153            2.750     50.51   1460.72
         C          3.153            2.750     50.51   1460.72
         C          3.153            2.750     50.51   1460.72
         C          3.153            2.750     50.51   1460.72
         C          3.153            2.750     50.51   1460.72
         C          3.186            2.750     50.21   1452.03
         C          3.186            2.750     50.21   1452.03
         C          3.186            2.750     50.21   1452.03
         C          3.186            2.750     50.21   1452.03
         C          3.186            2.750     50.21   1452.03
         C          3.186            2.750     50.21   1452.03
         C          3.186            2.750     50.21   1452.03
         C          3.186            2.750     50.21   1452.03
         C          3.307            2.750     48.43   1400.77
         C          3.307            2.750     48.43   1400.72
         C          3.307            2.750     48.43   1400.72
         C          3.307            2.750     48.43   1400.72
         C          3.307            2.750     48.43   1400.72
         C          3.307            2.750     48.43   1400.72
         C          3.307            2.750     48.43   1400.72
         C          3.307            2.750     48.43   1400.72
         C          3.314            2.750     48.29   1396.76
         C          3.314            2.750     48.29   1396.75
         C          3.314            2.750     48.29   1396.75
         C          3.314            2.750     48.29   1396.75
         C          3.314            2.750     48.29   1396.75
         C          3.314            2.750     48.29   1396.75
         C          3.314            2.750     48.29   1396.75
         C          3.314            2.750     48.29   1396.75
         C          3.224            2.750     49.77   1439.31
         C          3.224            2.750     49.77   1439.31
         C          3.224            2.750     49.77   1439.31
         C          3.224            2.750     49.77   1439.31
         C          3.224            2.750     49.77   1439.31
         C          3.224            2.750     49.77   1439.31
         C          3.224            2.750     49.77   1439.31
         C          3.224            2.750     49.77   1439.31
         C          3.203            2.750     50.03   1446.87
         C          3.203            2.750     50.03   1446.87
         C          3.203            2.750     50.03   1446.87
         C          3.203            2.750     50.03   1446.87
         C          3.203            2.750     50.03   1446.87
         C          3.203            2.750     50.03   1446.87
         C          3.203            2.750     50.03   1446.87
         C          3.203            2.750     50.03   1446.87
         C          3.154            2.750     50.50   1460.61
         C          3.154            2.750     50.50   1460.61
         C          3.154            2.750     50.50   1460.61
         C          3.154            2.750     50.50   1460.61
         C          3.154            2.750     50.50   1460.61
         C          3.154            2.750     50.50   1460.61
         C          3.154            2.750     50.50   1460.61
         C          3.154            2.750     50.50   1460.61
         C          3.147            2.750     50.55   1462.10
         C          3.147            2.750     50.55   1462.10
         C          3.147            2.750     50.55   1462.10
         C          3.147            2.750     50.55   1462.10
         C          3.147            2.750     50.55   1462.11
         C          3.147            2.750     50.55   1462.10
         C          3.147            2.750     50.55   1462.10
         C          3.147            2.750     50.55   1462.10
         C          3.204            2.750     50.01   1446.30
         C          3.204            2.750     50.01   1446.30
         C          3.204            2.750     50.01   1446.30
         C          3.204            2.750     50.01   1446.30
         C          3.204            2.750     50.01   1446.31
         C          3.204            2.750     50.01   1446.30
         C          3.204            2.750     50.01   1446.30
         C          3.204            2.750     50.01   1446.30
         C          3.226            2.750     49.74   1438.54
         C          3.226            2.750     49.74   1438.54
         C          3.226            2.750     49.74   1438.54
         C          3.226            2.750     49.74   1438.54
         C          3.226            2.750     49.74   1438.54
         C          3.226            2.750     49.74   1438.54
         C          3.226            2.750     49.74   1438.54
         C          3.226            2.750     49.74   1438.54
         C          3.135            2.750     50.65   1464.88
         C          3.135            2.750     50.65   1464.87
         C          3.135            2.750     50.65   1464.87
         C          3.135            2.750     50.65   1464.87
         C          3.135            2.750     50.65   1464.87
         C          3.135            2.750     50.65   1464.87
         C          3.135            2.750     50.65   1464.87
         C          3.135            2.750     50.65   1464.87
         C          3.189            2.750     50.18   1451.21
         C          3.189            2.750     50.18   1451.21
         C          3.189            2.750     50.18   1451.21
         C          3.189            2.750     50.18   1451.21
         C          3.189            2.750     50.18   1451.21
         C          3.189            2.750     50.18   1451.21
         C          3.189            2.750     50.18   1451.21
         C          3.189            2.750     50.18   1451.21
         C          3.153            2.750     50.51   1460.82
         C          3.153            2.750     50.51   1460.82
         C          3.153            2.750     50.51   1460.82
         C          3.153            2.750     50.51   1460.82
         C          3.153            2.750     50.51   1460.82
         C          3.153            2.750     50.51   1460.82
         C          3.153            2.750     50.51   1460.82
         C          3.153            2.750     50.51   1460.82
         C          3.142            2.750     50.60   1463.38
         C          3.142            2.750     50.60   1463.38
         C          3.142            2.750     50.60   1463.38
         C          3.142            2.750     50.60   1463.38
         C          3.142            2.750     50.60   1463.38
         C          3.142            2.750     50.60   1463.38
         C          3.142            2.750     50.60   1463.38
         C          3.142            2.750     50.60   1463.38
         C          3.146            2.750     50.56   1462.38
         C          3.146            2.750     50.56   1462.38
         C          3.146            2.750     50.56   1462.38
         C          3.146            2.750     50.56   1462.38
         C          3.146            2.750     50.56   1462.38
         C          3.146            2.750     50.56   1462.38
         C          3.146            2.750     50.56   1462.38
         C          3.146            2.750     50.56   1462.38

         Molecular C6 ( Ry / a.u.^6 ) =   1476916.21

     Message from routine setup :
     BEWARE: nonlinear core correction is not consistent with hybrid XC

     Subspace diagonalization in iterative solution of the eigenvalue problem:
     one sub-group per band group will be used
     scalapack distributed-memory algorithm (size of sub-group:  4*  4 procs)

     EXX: setup a grid of 8 q-points centered on each k-point
     (k+q)-points:
   0.0000000   0.0000000   0.0000000         1    1
   0.0000000   0.0000000  -0.5417756         2    1
   0.0000000  -0.6749509   0.0000000         3    1
   0.0000000  -0.6749509  -0.5417756         4    1
  -0.5000000   0.0000000  -0.0256614         5    1
  -0.5000000   0.0000000  -0.5674370         6    1
  -0.5000000  -0.6749509  -0.0256614         7    1
  -0.5000000  -0.6749509  -0.5674370         8    1
 
     Parallelization info
     --------------------
     sticks:   dense  smooth     PW     G-vecs:    dense   smooth      PW
     Min        2700     899    236               452653    87119   11754
     Max        2701     900    237               452657    87123   11756
     Sum       43201   14393   3787              7242467  1393933  188085
 

     Title: 
     PBE0-D3                                                                    


     bravais-lattice index     =            0
     lattice parameter (alat)  =      28.5349  a.u.
     unit-cell volume          =   15884.5855 (a.u.)^3
     number of atoms/cell      =          240
     number of atomic types    =            4
     number of electrons       =       704.00
     number of Kohn-Sham states=          422
     kinetic-energy cutoff     =      75.0000  Ry
     charge density cutoff     =     900.0000  Ry
     cutoff for Fock operator  =     300.0000  Ry
     convergence threshold     =      1.0E-08
     mixing beta               =       0.7000
     number of iterations used =            8  plain     mixing
     Exchange-correlation= PBE0
                           (   6   4   8   4   0   0   0)
     EXX-fraction              =        0.25

     celldm(1)=  28.534865  celldm(2)=   0.000000  celldm(3)=   0.000000
     celldm(4)=   0.000000  celldm(5)=   0.000000  celldm(6)=   0.000000

     crystal axes: (cart. coord. in units of alat)
               a(1) = (   1.000000   0.000000   0.000000 )  
               a(2) = (   0.000000   0.740795   0.000000 )  
               a(3) = (  -0.047365   0.000000   0.922891 )  

     reciprocal axes: (cart. coord. in units 2 pi/alat)
               b(1) = (  1.000000  0.000000  0.051323 )  
               b(2) = (  0.000000  1.349902  0.000000 )  
               b(3) = (  0.000000  0.000000  1.083551 )  


     PseudoPot. # 1 for O  read from file:
     ./o_pbe_v1.2.uspp.F.UPF
     MD5 check sum: 734c27235a0248c51dbae37a1fbe46ec
     Pseudo is Ultrasoft + core correction, Zval =  6.0
     Generated by new atomic code, or converted to UPF format
     Using radial grid of  737 points,  5 beta functions with: 
                l(1) =   0
                l(2) =   0
                l(3) =   1
                l(4) =   1
                l(5) =   2
     Q(r) pseudized with  8 coefficients,  rinner =    0.900   0.900   0.900
                                                       0.900   0.900

     PseudoPot. # 2 for N  read from file:
     ./n_pbe_v1.2.uspp.F.UPF
     MD5 check sum: 95339753478d7afb44899504a8723017
     Pseudo is Ultrasoft + core correction, Zval =  5.0
     Generated by new atomic code, or converted to UPF format
     Using radial grid of  729 points,  4 beta functions with: 
                l(1) =   0
                l(2) =   0
                l(3) =   1
                l(4) =   1
     Q(r) pseudized with  8 coefficients,  rinner =    0.900   0.900   0.900


     PseudoPot. # 3 for H  read from file:
     ./h_pbe_v1.4.uspp.F.UPF
     MD5 check sum: 761ae9a214b05c3daf00ab9f6b793d6f
     Pseudo is Ultrasoft, Zval =  1.0
     Generated by new atomic code, or converted to UPF format
     Using radial grid of  615 points,  2 beta functions with: 
                l(1) =   0
                l(2) =   0
     Q(r) pseudized with  8 coefficients,  rinner =    0.700

     PseudoPot. # 4 for C  read from file:
     ./c_pbe_v1.2.uspp.F.UPF
     MD5 check sum: d1aef80898a10debaa0f26306b886e00
     Pseudo is Ultrasoft + core correction, Zval =  4.0
     Generated by new atomic code, or converted to UPF format
     Using radial grid of  721 points,  4 beta functions with: 
                l(1) =   0
                l(2) =   0
                l(3) =   1
                l(4) =   1
     Q(r) pseudized with  8 coefficients,  rinner =    1.100   1.100   1.100


     atomic species   valence    mass     pseudopotential
        O              6.00    16.00000     O ( 1.00)
        N              5.00    14.00000     N ( 1.00)
        H              1.00     1.00000     H ( 1.00)
        C              4.00    12.00000     C ( 1.00)

     No symmetry found


                                    s                        frac. trans.

      isym =  1     identity                                     

 cryst.   s( 1) = (     1          0          0      )
                  (     0          1          0      )
                  (     0          0          1      )

 cart.    s( 1) = (  1.0000000  0.0000000 -0.0000000 )
                  (  0.0000000  1.0000000  0.0000000 )
                  (  0.0000000  0.0000000  1.0000000 )


   Cartesian axes

     site n.     atom                  positions (alat units)
         1           O   tau(   1) = (   0.2502233   0.2804012   0.0843002  )
         2           O   tau(   2) = (   0.7495610   0.2804012   0.0843002  )
         3           O   tau(   3) = (   0.2030736   0.4603935   0.8385911  )
         4           O   tau(   4) = (   0.7030736   0.4603935   0.8385911  )
         5           O   tau(   5) = (   0.4767563   0.6507986   0.3771454  )
         6           O   tau(   6) = (   0.9767563   0.6507986   0.3771454  )
         7           O   tau(   7) = (  -0.0241217   0.0899961   0.5457459  )
         8           O   tau(   8) = (   0.4758783   0.0899961   0.5457459  )
         9           N   tau(   9) = (   0.1443057   0.1758229   0.0545013  )
        10           N   tau(  10) = (   0.6443057   0.1758229   0.0545013  )
        11           N   tau(  11) = (   0.3083289   0.5649718   0.8683900  )
        12           N   tau(  12) = (   0.8083289   0.5649718   0.8683900  )
        13           N   tau(  13) = (   0.0820116   0.5462202   0.4069444  )
        14           N   tau(  14) = (   0.5820116   0.5462202   0.4069444  )
        15           N   tau(  15) = (   0.3706230   0.1945744   0.5159469  )
        16           N   tau(  16) = (   0.8706230   0.1945744   0.5159469  )
        17           N   tau(  17) = (   0.1162345   0.2969619   0.8853537  )
        18           N   tau(  18) = (   0.6162345   0.2969619   0.8853537  )
        19           N   tau(  19) = (   0.3364001   0.4438328   0.0375376  )
        20           N   tau(  20) = (   0.8364001   0.4438328   0.0375376  )
        21           N   tau(  21) = (   0.0627174   0.6673592   0.4989832  )
        22           N   tau(  22) = (   0.5627174   0.6673592   0.4989832  )
        23           N   tau(  23) = (   0.3899172   0.0734355   0.4239081  )
        24           N   tau(  24) = (   0.8899172   0.0734355   0.4239081  )
        25           H   tau(  25) = (   0.0654295   0.2752217   0.8483081  )
        26           H   tau(  26) = (   0.5654295   0.2752217   0.8483081  )
        27           H   tau(  27) = (   0.3872051   0.4655730   0.0745833  )
        28           H   tau(  28) = (   0.8872051   0.4655730   0.0745833  )
        29           H   tau(  29) = (   0.1135224   0.6456190   0.5360289  )
        30           H   tau(  30) = (   0.6135224   0.6456190   0.5360289  )
        31           H   tau(  31) = (   0.3391122   0.0951757   0.3868624  )
        32           H   tau(  32) = (   0.8391122   0.0951757   0.3868624  )
        33           H   tau(  33) = (   0.1465488   0.3553932   0.8696665  )
        34           H   tau(  34) = (   0.6465488   0.3553932   0.8696665  )
        35           H   tau(  35) = (   0.3060858   0.3854015   0.0532248  )
        36           H   tau(  36) = (   0.8060858   0.3854015   0.0532248  )
        37           H   tau(  37) = (   0.0324031   0.7257905   0.5146705  )
        38           H   tau(  38) = (   0.5324031   0.7257905   0.5146705  )
        39           H   tau(  39) = (   0.4202316   0.0150041   0.4082208  )
        40           H   tau(  40) = (   0.9202316   0.0150041   0.4082208  )
        41           H   tau(  41) = (   0.3118945   0.0079339   0.2432226  )
        42           H   tau(  42) = (   0.8118945   0.0079339   0.2432226  )
        43           H   tau(  43) = (   0.1407401   0.7328608   0.6796687  )
        44           H   tau(  44) = (   0.6407401   0.7328608   0.6796687  )
        45           H   tau(  45) = (   0.4144228   0.3783312   0.2182230  )
        46           H   tau(  46) = (   0.9144228   0.3783312   0.2182230  )
        47           H   tau(  47) = (   0.0382118   0.3624634   0.7046683  )
        48           H   tau(  48) = (   0.5382118   0.3624634   0.7046683  )
        49           H   tau(  49) = (   0.2882746   0.0871764   0.1024218  )
        50           H   tau(  50) = (   0.7882746   0.0871764   0.1024218  )
        51           H   tau(  51) = (   0.1643600   0.6536183   0.8204695  )
        52           H   tau(  52) = (   0.6643600   0.6536183   0.8204695  )
        53           H   tau(  53) = (   0.4380427   0.4575737   0.3590238  )
        54           H   tau(  54) = (   0.9380427   0.4575737   0.3590238  )
        55           H   tau(  55) = (   0.0145919   0.2832209   0.5638675  )
        56           H   tau(  56) = (   0.5145919   0.2832209   0.5638675  )
        57           H   tau(  57) = (   0.3075801   0.1258407   0.9018165  )
        58           H   tau(  58) = (   0.8075801   0.1258407   0.9018165  )
        59           H   tau(  59) = (   0.1450545   0.6149540   0.0210748  )
        60           H   tau(  60) = (   0.6450545   0.6149540   0.0210748  )
        61           H   tau(  61) = (   0.3713718   0.4962380   0.4825205  )
        62           H   tau(  62) = (   0.8713718   0.4962380   0.4825205  )
        63           H   tau(  63) = (   0.0812628   0.2445567   0.4403708  )
        64           H   tau(  64) = (   0.5812628   0.2445567   0.4403708  )
        65           H   tau(  65) = (   0.3498091   0.0636578   0.7569214  )
        66           H   tau(  66) = (   0.8498091   0.0636578   0.7569214  )
        67           H   tau(  67) = (   0.1028255   0.6771369   0.1659699  )
        68           H   tau(  68) = (   0.6028255   0.6771369   0.1659699  )
        69           H   tau(  69) = (   0.3291428   0.4340552   0.6274156  )
        70           H   tau(  70) = (   0.8291428   0.4340552   0.6274156  )
        71           H   tau(  71) = (   0.1234918   0.3067395   0.2954757  )
        72           H   tau(  72) = (   0.6234918   0.3067395   0.2954757  )
        73           H   tau(  73) = (   0.1926416   0.0057671   0.3568361  )
        74           H   tau(  74) = (   0.6926416   0.0057671   0.3568361  )
        75           H   tau(  75) = (   0.2599931   0.7350276   0.5660552  )
        76           H   tau(  76) = (   0.7599931   0.7350276   0.5660552  )
        77           H   tau(  77) = (   0.0336757   0.3761644   0.1046095  )
        78           H   tau(  78) = (   0.5336757   0.3761644   0.1046095  )
        79           H   tau(  79) = (   0.4189589   0.3646302   0.8182818  )
        80           H   tau(  80) = (   0.9189589   0.3646302   0.8182818  )
        81           H   tau(  81) = (   0.0525041   0.0837268   0.3281926  )
        82           H   tau(  82) = (   0.5525041   0.0837268   0.3281926  )
        83           H   tau(  83) = (   0.4001305   0.6570678   0.5946988  )
        84           H   tau(  84) = (   0.9001305   0.6570678   0.5946988  )
        85           H   tau(  85) = (   0.1738132   0.4541242   0.1332531  )
        86           H   tau(  86) = (   0.6738132   0.4541242   0.1332531  )
        87           H   tau(  87) = (   0.2788214   0.2866705   0.7896382  )
        88           H   tau(  88) = (   0.7788214   0.2866705   0.7896382  )
        89           H   tau(  89) = (   0.1232573   0.1005975   0.8225104  )
        90           H   tau(  90) = (   0.6232573   0.1005975   0.8225104  )
        91           H   tau(  91) = (   0.3293773   0.6401972   0.1003809  )
        92           H   tau(  92) = (   0.8293773   0.6401972   0.1003809  )
        93           H   tau(  93) = (   0.0556946   0.4709948   0.5618265  )
        94           H   tau(  94) = (   0.5556946   0.4709948   0.5618265  )
        95           H   tau(  95) = (   0.3969400   0.2697999   0.3610648  )
        96           H   tau(  96) = (   0.8969400   0.2697999   0.3610648  )
        97           H   tau(  97) = (   0.0068021   0.0521090   0.7154728  )
        98           H   tau(  98) = (   0.5068021   0.0521090   0.7154728  )
        99           H   tau(  99) = (   0.4458325   0.6886856   0.2074185  )
       100           H   tau( 100) = (   0.9458325   0.6886856   0.2074185  )
       101           H   tau( 101) = (   0.1721498   0.4225064   0.6688642  )
       102           H   tau( 102) = (   0.6721498   0.4225064   0.6688642  )
       103           H   tau( 103) = (   0.2804848   0.3182883   0.2540272  )
       104           H   tau( 104) = (   0.7804848   0.3182883   0.2540272  )
       105           H   tau( 105) = (   0.3930821   0.2070093   0.1111397  )
       106           H   tau( 106) = (   0.8930821   0.2070093   0.1111397  )
       107           H   tau( 107) = (   0.0595525   0.5337854   0.8117516  )
       108           H   tau( 108) = (   0.5595525   0.5337854   0.8117516  )
       109           H   tau( 109) = (   0.3332352   0.5774066   0.3503060  )
       110           H   tau( 110) = (   0.8332352   0.5774066   0.3503060  )
       111           H   tau( 111) = (   0.1193994   0.1633881   0.5725853  )
       112           H   tau( 112) = (   0.6193994   0.1633881   0.5725853  )
       113           H   tau( 113) = (   0.4694841   0.1899801   0.2451881  )
       114           H   tau( 114) = (   0.9694841   0.1899801   0.2451881  )
       115           H   tau( 115) = (  -0.0168495   0.5508146   0.6777032  )
       116           H   tau( 116) = (   0.4831505   0.5508146   0.6777032  )
       117           H   tau( 117) = (   0.2568332   0.5603774   0.2162575  )
       118           H   tau( 118) = (   0.7568332   0.5603774   0.2162575  )
       119           H   tau( 119) = (   0.1958015   0.1804173   0.7066338  )
       120           H   tau( 120) = (   0.6958015   0.1804173   0.7066338  )
       121           C   tau( 121) = (   0.2498655   0.0419737   0.2313896  )
       122           C   tau( 122) = (   0.7498655   0.0419737   0.2313896  )
       123           C   tau( 123) = (   0.2027691   0.6988210   0.6915018  )
       124           C   tau( 124) = (   0.7027691   0.6988210   0.6915018  )
       125           C   tau( 125) = (   0.4764518   0.4123710   0.2300561  )
       126           C   tau( 126) = (   0.9764518   0.4123710   0.2300561  )
       127           C   tau( 127) = (  -0.0238172   0.3284237   0.6928352  )
       128           C   tau( 128) = (   0.4761828   0.3284237   0.6928352  )
       129           C   tau( 129) = (   0.2367005   0.0861419   0.1520615  )
       130           C   tau( 130) = (   0.7367005   0.0861419   0.1520615  )
       131           C   tau( 131) = (   0.2159341   0.6546528   0.7708297  )
       132           C   tau( 132) = (   0.7159341   0.6546528   0.7708297  )
       133           C   tau( 133) = (  -0.0103832   0.4565393   0.3093841  )
       134           C   tau( 134) = (   0.4896168   0.4565393   0.3093841  )
       135           C   tau( 135) = (   0.4630178   0.2842554   0.6135072  )
       136           C   tau( 136) = (   0.9630178   0.2842554   0.6135072  )
       137           C   tau( 137) = (   0.1576140   0.1301166   0.1358330  )
       138           C   tau( 138) = (   0.6576140   0.1301166   0.1358330  )
       139           C   tau( 139) = (   0.2950206   0.6106780   0.7870583  )
       140           C   tau( 140) = (   0.7950206   0.6106780   0.7870583  )
       141           C   tau( 141) = (   0.0687033   0.5005140   0.3256127  )
       142           C   tau( 142) = (   0.5687033   0.5005140   0.3256127  )
       143           C   tau( 143) = (   0.3839313   0.2402807   0.5972786  )
       144           C   tau( 144) = (   0.8839313   0.2402807   0.5972786  )
       145           C   tau( 145) = (   0.0299098   0.1418240   0.9203421  )
       146           C   tau( 146) = (   0.5299098   0.1418240   0.9203421  )
       147           C   tau( 147) = (   0.4227248   0.5989706   0.0025492  )
       148           C   tau( 148) = (   0.9227248   0.5989706   0.0025492  )
       149           C   tau( 149) = (   0.1490421   0.5122214   0.4639949  )
       150           C   tau( 150) = (   0.6490421   0.5122214   0.4639949  )
       151           C   tau( 151) = (   0.3035925   0.2285733   0.4588964  )
       152           C   tau( 152) = (   0.8035925   0.2285733   0.4588964  )
       153           C   tau( 153) = (   0.4880996   0.1481086   0.0221813  )
       154           C   tau( 154) = (   0.9880996   0.1481086   0.0221813  )
       155           C   tau( 155) = (  -0.0354649   0.5926860   0.9007100  )
       156           C   tau( 156) = (   0.4645351   0.5926860   0.9007100  )
       157           C   tau( 157) = (   0.2382177   0.5185060   0.4392643  )
       158           C   tau( 158) = (   0.7382177   0.5185060   0.4392643  )
       159           C   tau( 159) = (   0.2144169   0.2222887   0.4836270  )
       160           C   tau( 160) = (   0.7144169   0.2222887   0.4836270  )
       161           C   tau( 161) = (   0.3769015   0.1195801   0.8842781  )
       162           C   tau( 162) = (   0.8769015   0.1195801   0.8842781  )
       163           C   tau( 163) = (   0.0757331   0.6212146   0.0386132  )
       164           C   tau( 164) = (   0.5757331   0.6212146   0.0386132  )
       165           C   tau( 165) = (   0.3020504   0.4899774   0.5000589  )
       166           C   tau( 166) = (   0.8020504   0.4899774   0.5000589  )
       167           C   tau( 167) = (   0.1505842   0.2508173   0.4228325  )
       168           C   tau( 168) = (   0.6505842   0.2508173   0.4228325  )
       169           C   tau( 169) = (   0.4003688   0.0847310   0.8031028  )
       170           C   tau( 170) = (   0.9003688   0.0847310   0.8031028  )
       171           C   tau( 171) = (   0.0522658   0.6560637   0.1197885  )
       172           C   tau( 172) = (   0.5522658   0.6560637   0.1197885  )
       173           C   tau( 173) = (   0.2785831   0.4551283   0.5812342  )
       174           C   tau( 174) = (   0.7785831   0.4551283   0.5812342  )
       175           C   tau( 175) = (   0.1740515   0.2856664   0.3416571  )
       176           C   tau( 176) = (   0.6740515   0.2856664   0.3416571  )
       177           C   tau( 177) = (   0.1834006   0.0411376   0.2951139  )
       178           C   tau( 178) = (   0.6834006   0.0411376   0.2951139  )
       179           C   tau( 179) = (   0.2692340   0.6996571   0.6277774  )
       180           C   tau( 180) = (   0.7692340   0.6996571   0.6277774  )
       181           C   tau( 181) = (   0.0429167   0.4115349   0.1663317  )
       182           C   tau( 182) = (   0.5429167   0.4115349   0.1663317  )
       183           C   tau( 183) = (   0.4097179   0.3292597   0.7565596  )
       184           C   tau( 184) = (   0.9097179   0.3292597   0.7565596  )
       185           C   tau( 185) = (   0.1046538   0.0847118   0.2789346  )
       186           C   tau( 186) = (   0.6046538   0.0847118   0.2789346  )
       187           C   tau( 187) = (   0.3479808   0.6560828   0.6439567  )
       188           C   tau( 188) = (   0.8479808   0.6560828   0.6439567  )
       189           C   tau( 189) = (   0.1216635   0.4551092   0.1825110  )
       190           C   tau( 190) = (   0.6216635   0.4551092   0.1825110  )
       191           C   tau( 191) = (   0.3309711   0.2856855   0.7403803  )
       192           C   tau( 192) = (   0.8309711   0.2856855   0.7403803  )
       193           C   tau( 193) = (   0.0895677   0.1291133   0.1989711  )
       194           C   tau( 194) = (   0.5895677   0.1291133   0.1989711  )
       195           C   tau( 195) = (   0.3630669   0.6116814   0.7239202  )
       196           C   tau( 196) = (   0.8630669   0.6116814   0.7239202  )
       197           C   tau( 197) = (   0.1367496   0.4995106   0.2624745  )
       198           C   tau( 198) = (   0.6367496   0.4995106   0.2624745  )
       199           C   tau( 199) = (   0.3158850   0.2412841   0.6604168  )
       200           C   tau( 200) = (   0.8158850   0.2412841   0.6604168  )
       201           C   tau( 201) = (   0.1890365   0.2531565   0.0358815  )
       202           C   tau( 202) = (   0.6890365   0.2531565   0.0358815  )
       203           C   tau( 203) = (   0.2635981   0.4876381   0.8870098  )
       204           C   tau( 204) = (   0.7635981   0.4876381   0.8870098  )
       205           C   tau( 205) = (   0.0372808   0.6235539   0.4255641  )
       206           C   tau( 206) = (   0.5372808   0.6235539   0.4255641  )
       207           C   tau( 207) = (   0.4153538   0.1172408   0.4973272  )
       208           C   tau( 208) = (   0.9153538   0.1172408   0.4973272  )
       209           C   tau( 209) = (   0.0535856   0.1053620   0.8391343  )
       210           C   tau( 210) = (   0.5535856   0.1053620   0.8391343  )
       211           C   tau( 211) = (   0.3990491   0.6354326   0.0837570  )
       212           C   tau( 212) = (   0.8990491   0.6354326   0.0837570  )
       213           C   tau( 213) = (   0.1253664   0.4757594   0.5452026  )
       214           C   tau( 214) = (   0.6253664   0.4757594   0.5452026  )
       215           C   tau( 215) = (   0.3272682   0.2650353   0.3776887  )
       216           C   tau( 216) = (   0.8272682   0.2650353   0.3776887  )
       217           C   tau( 217) = (  -0.0108735   0.0775355   0.7801071  )
       218           C   tau( 218) = (   0.4891265   0.0775355   0.7801071  )
       219           C   tau( 219) = (   0.4635081   0.6632592   0.1427842  )
       220           C   tau( 220) = (   0.9635081   0.6632592   0.1427842  )
       221           C   tau( 221) = (   0.1898254   0.4479328   0.6042299  )
       222           C   tau( 222) = (   0.6898254   0.4479328   0.6042299  )
       223           C   tau( 223) = (   0.2628092   0.2928619   0.3186614  )
       224           C   tau( 224) = (   0.7628092   0.2928619   0.3186614  )
       225           C   tau( 225) = (   0.4597341   0.1799685   0.1084183  )
       226           C   tau( 226) = (   0.9597341   0.1799685   0.1084183  )
       227           C   tau( 227) = (  -0.0070995   0.5608261   0.8144730  )
       228           C   tau( 228) = (   0.4929005   0.5608261   0.8144730  )
       229           C   tau( 229) = (   0.2665832   0.5503659   0.3530273  )
       230           C   tau( 230) = (   0.7665832   0.5503659   0.3530273  )
       231           C   tau( 231) = (   0.1860514   0.1904288   0.5698640  )
       232           C   tau( 232) = (   0.6860514   0.1904288   0.5698640  )
       233           C   tau( 233) = (   0.0038653   0.1706885   0.1850590  )
       234           C   tau( 234) = (   0.5038653   0.1706885   0.1850590  )
       235           C   tau( 235) = (   0.4487693   0.5701062   0.7378323  )
       236           C   tau( 236) = (   0.9487693   0.5701062   0.7378323  )
       237           C   tau( 237) = (   0.2224520   0.5410858   0.2763866  )
       238           C   tau( 238) = (   0.7224520   0.5410858   0.2763866  )
       239           C   tau( 239) = (   0.2301826   0.1997088   0.6465047  )
       240           C   tau( 240) = (   0.7301826   0.1997088   0.6465047  )

   Crystallographic axes

     site n.     atom                  positions (cryst. coord.)
         1           O   tau(   1) = (  0.2545498  0.3785141  0.0913436  )
         2           O   tau(   2) = (  0.7538876  0.3785141  0.0913436  )
         3           O   tau(   3) = (  0.2461124  0.6214859  0.9086564  )
         4           O   tau(   4) = (  0.7461124  0.6214859  0.9086564  )
         5           O   tau(   5) = (  0.4961124  0.8785141  0.4086564  )
         6           O   tau(   6) = (  0.9961124  0.8785141  0.4086564  )
         7           O   tau(   7) = (  0.0038876  0.1214859  0.5913436  )
         8           O   tau(   8) = (  0.5038876  0.1214859  0.5913436  )
         9           N   tau(   9) = (  0.1471029  0.2373436  0.0590549  )
        10           N   tau(  10) = (  0.6471029  0.2373436  0.0590549  )
        11           N   tau(  11) = (  0.3528971  0.7626564  0.9409451  )
        12           N   tau(  12) = (  0.8528971  0.7626564  0.9409451  )
        13           N   tau(  13) = (  0.1028971  0.7373436  0.4409451  )
        14           N   tau(  14) = (  0.6028971  0.7373436  0.4409451  )
        15           N   tau(  15) = (  0.3971029  0.2626564  0.5590549  )
        16           N   tau(  16) = (  0.8971029  0.2626564  0.5590549  )
        17           N   tau(  17) = (  0.1616734  0.4008693  0.9593261  )
        18           N   tau(  18) = (  0.6616734  0.4008693  0.9593261  )
        19           N   tau(  19) = (  0.3383266  0.5991306  0.0406739  )
        20           N   tau(  20) = (  0.8383266  0.5991306  0.0406739  )
        21           N   tau(  21) = (  0.0883266  0.9008694  0.5406739  )
        22           N   tau(  22) = (  0.5883266  0.9008694  0.5406739  )
        23           N   tau(  23) = (  0.4116734  0.0991307  0.4593261  )
        24           N   tau(  24) = (  0.9116734  0.0991307  0.4593261  )
        25           H   tau(  25) = (  0.1089671  0.3715222  0.9191852  )
        26           H   tau(  26) = (  0.6089671  0.3715222  0.9191852  )
        27           H   tau(  27) = (  0.3910330  0.6284778  0.0808148  )
        28           H   tau(  28) = (  0.8910330  0.6284778  0.0808148  )
        29           H   tau(  29) = (  0.1410329  0.8715222  0.5808148  )
        30           H   tau(  30) = (  0.6410329  0.8715222  0.5808148  )
        31           H   tau(  31) = (  0.3589670  0.1284778  0.4191852  )
        32           H   tau(  32) = (  0.8589670  0.1284778  0.4191852  )
        33           H   tau(  33) = (  0.1911826  0.4797459  0.9423282  )
        34           H   tau(  34) = (  0.6911826  0.4797459  0.9423282  )
        35           H   tau(  35) = (  0.3088174  0.5202541  0.0576718  )
        36           H   tau(  36) = (  0.8088174  0.5202541  0.0576718  )
        37           H   tau(  37) = (  0.0588174  0.9797459  0.5576718  )
        38           H   tau(  38) = (  0.5588174  0.9797459  0.5576718  )
        39           H   tau(  39) = (  0.4411826  0.0202541  0.4423282  )
        40           H   tau(  40) = (  0.9411826  0.0202541  0.4423282  )
        41           H   tau(  41) = (  0.3243774  0.0107100  0.2635442  )
        42           H   tau(  42) = (  0.8243774  0.0107100  0.2635442  )
        43           H   tau(  43) = (  0.1756226  0.9892900  0.7364558  )
        44           H   tau(  44) = (  0.6756226  0.9892900  0.7364558  )
        45           H   tau(  45) = (  0.4256226  0.5107100  0.2364558  )
        46           H   tau(  46) = (  0.9256226  0.5107100  0.2364558  )
        47           H   tau(  47) = (  0.0743774  0.4892900  0.7635442  )
        48           H   tau(  48) = (  0.5743774  0.4892900  0.7635442  )
        49           H   tau(  49) = (  0.2935312  0.1176796  0.1109793  )
        50           H   tau(  50) = (  0.7935312  0.1176796  0.1109793  )
        51           H   tau(  51) = (  0.2064688  0.8823204  0.8890207  )
        52           H   tau(  52) = (  0.7064688  0.8823204  0.8890207  )
        53           H   tau(  53) = (  0.4564688  0.6176796  0.3890207  )
        54           H   tau(  54) = (  0.9564688  0.6176796  0.3890207  )
        55           H   tau(  55) = (  0.0435312  0.3823204  0.6109793  )
        56           H   tau(  56) = (  0.5435312  0.3823204  0.6109793  )
        57           H   tau(  57) = (  0.3538639  0.1698725  0.9771643  )
        58           H   tau(  58) = (  0.8538639  0.1698725  0.9771643  )
        59           H   tau(  59) = (  0.1461361  0.8301275  0.0228356  )
        60           H   tau(  60) = (  0.6461361  0.8301275  0.0228356  )
        61           H   tau(  61) = (  0.3961361  0.6698725  0.5228357  )
        62           H   tau(  62) = (  0.8961361  0.6698725  0.5228357  )
        63           H   tau(  63) = (  0.1038639  0.3301275  0.4771643  )
        64           H   tau(  64) = (  0.6038639  0.3301275  0.4771643  )
        65           H   tau(  65) = (  0.3886564  0.0859318  0.8201631  )
        66           H   tau(  66) = (  0.8886564  0.0859318  0.8201631  )
        67           H   tau(  67) = (  0.1113436  0.9140682  0.1798369  )
        68           H   tau(  68) = (  0.6113436  0.9140682  0.1798369  )
        69           H   tau(  69) = (  0.3613436  0.5859318  0.6798369  )
        70           H   tau(  70) = (  0.8613436  0.5859318  0.6798369  )
        71           H   tau(  71) = (  0.1386564  0.4140682  0.3201631  )
        72           H   tau(  72) = (  0.6386564  0.4140682  0.3201631  )
        73           H   tau(  73) = (  0.2109554  0.0077850  0.3866502  )
        74           H   tau(  74) = (  0.7109554  0.0077850  0.3866502  )
        75           H   tau(  75) = (  0.2890446  0.9922150  0.6133498  )
        76           H   tau(  76) = (  0.7890446  0.9922150  0.6133498  )
        77           H   tau(  77) = (  0.0390446  0.5077850  0.1133498  )
        78           H   tau(  78) = (  0.5390446  0.5077850  0.1133498  )
        79           H   tau(  79) = (  0.4609554  0.4922150  0.8866502  )
        80           H   tau(  80) = (  0.9609554  0.4922150  0.8866502  )
        81           H   tau(  81) = (  0.0693478  0.1130230  0.3556134  )
        82           H   tau(  82) = (  0.5693478  0.1130230  0.3556134  )
        83           H   tau(  83) = (  0.4306522  0.8869770  0.6443866  )
        84           H   tau(  84) = (  0.9306522  0.8869770  0.6443866  )
        85           H   tau(  85) = (  0.1806522  0.6130230  0.1443866  )
        86           H   tau(  86) = (  0.6806522  0.6130230  0.1443866  )
        87           H   tau(  87) = (  0.3193478  0.3869770  0.8556134  )
        88           H   tau(  88) = (  0.8193478  0.3869770  0.8556134  )
        89           H   tau(  89) = (  0.1654708  0.1357967  0.8912322  )
        90           H   tau(  90) = (  0.6654708  0.1357967  0.8912322  )
        91           H   tau(  91) = (  0.3345292  0.8642033  0.1087678  )
        92           H   tau(  92) = (  0.8345292  0.8642033  0.1087678  )
        93           H   tau(  93) = (  0.0845292  0.6357967  0.6087678  )
        94           H   tau(  94) = (  0.5845292  0.6357967  0.6087678  )
        95           H   tau(  95) = (  0.4154708  0.3642033  0.3912322  )
        96           H   tau(  96) = (  0.9154708  0.3642033  0.3912322  )
        97           H   tau(  97) = (  0.0435222  0.0703421  0.7752514  )
        98           H   tau(  98) = (  0.5435222  0.0703421  0.7752514  )
        99           H   tau(  99) = (  0.4564778  0.9296579  0.2247486  )
       100           H   tau( 100) = (  0.9564778  0.9296579  0.2247486  )
       101           H   tau( 101) = (  0.2064778  0.5703421  0.7247486  )
       102           H   tau( 102) = (  0.7064778  0.5703421  0.7247486  )
       103           H   tau( 103) = (  0.2935222  0.4296579  0.2752514  )
       104           H   tau( 104) = (  0.7935222  0.4296579  0.2752514  )
       105           H   tau( 105) = (  0.3987861  0.2794422  0.1204255  )
       106           H   tau( 106) = (  0.8987861  0.2794422  0.1204255  )
       107           H   tau( 107) = (  0.1012139  0.7205578  0.8795745  )
       108           H   tau( 108) = (  0.6012139  0.7205578  0.8795745  )
       109           H   tau( 109) = (  0.3512139  0.7794422  0.3795745  )
       110           H   tau( 110) = (  0.8512139  0.7794422  0.3795745  )
       111           H   tau( 111) = (  0.1487861  0.2205578  0.6204255  )
       112           H   tau( 112) = (  0.6487861  0.2205578  0.6204255  )
       113           H   tau( 113) = (  0.4820679  0.2564544  0.2656739  )
       114           H   tau( 114) = (  0.9820679  0.2564544  0.2656739  )
       115           H   tau( 115) = (  0.0179321  0.7435456  0.7343261  )
       116           H   tau( 116) = (  0.5179321  0.7435456  0.7343261  )
       117           H   tau( 117) = (  0.2679321  0.7564544  0.2343261  )
       118           H   tau( 118) = (  0.7679321  0.7564544  0.2343261  )
       119           H   tau( 119) = (  0.2320679  0.2435456  0.7656739  )
       120           H   tau( 120) = (  0.7320679  0.2435456  0.7656739  )
       121           C   tau( 121) = (  0.2617411  0.0566603  0.2507225  )
       122           C   tau( 122) = (  0.7617411  0.0566603  0.2507225  )
       123           C   tau( 123) = (  0.2382589  0.9433397  0.7492776  )
       124           C   tau( 124) = (  0.7382589  0.9433397  0.7492776  )
       125           C   tau( 125) = (  0.4882589  0.5566603  0.2492775  )
       126           C   tau( 126) = (  0.9882589  0.5566603  0.2492775  )
       127           C   tau( 127) = (  0.0117411  0.4433397  0.7507224  )
       128           C   tau( 128) = (  0.5117411  0.4433397  0.7507224  )
       129           C   tau( 129) = (  0.2445048  0.1162831  0.1647665  )
       130           C   tau( 130) = (  0.7445048  0.1162831  0.1647665  )
       131           C   tau( 131) = (  0.2554952  0.8837169  0.8352335  )
       132           C   tau( 132) = (  0.7554952  0.8837169  0.8352335  )
       133           C   tau( 133) = (  0.0054952  0.6162831  0.3352335  )
       134           C   tau( 134) = (  0.5054952  0.6162831  0.3352335  )
       135           C   tau( 135) = (  0.4945048  0.3837169  0.6647665  )
       136           C   tau( 136) = (  0.9945048  0.3837169  0.6647665  )
       137           C   tau( 137) = (  0.1645853  0.1756447  0.1471820  )
       138           C   tau( 138) = (  0.6645853  0.1756447  0.1471820  )
       139           C   tau( 139) = (  0.3354147  0.8243553  0.8528180  )
       140           C   tau( 140) = (  0.8354147  0.8243553  0.8528180  )
       141           C   tau( 141) = (  0.0854147  0.6756447  0.3528180  )
       142           C   tau( 142) = (  0.5854147  0.6756447  0.3528180  )
       143           C   tau( 143) = (  0.4145853  0.3243553  0.6471820  )
       144           C   tau( 144) = (  0.9145853  0.3243553  0.6471820  )
       145           C   tau( 145) = (  0.0771444  0.1914485  0.9972378  )
       146           C   tau( 146) = (  0.5771444  0.1914485  0.9972378  )
       147           C   tau( 147) = (  0.4228556  0.8085515  0.0027622  )
       148           C   tau( 148) = (  0.9228556  0.8085515  0.0027622  )
       149           C   tau( 149) = (  0.1728556  0.6914485  0.5027622  )
       150           C   tau( 150) = (  0.6728556  0.6914485  0.5027622  )
       151           C   tau( 151) = (  0.3271444  0.3085515  0.4972378  )
       152           C   tau( 152) = (  0.8271444  0.3085515  0.4972378  )
       153           C   tau( 153) = (  0.4892380  0.1999321  0.0240346  )
       154           C   tau( 154) = (  0.9892380  0.1999321  0.0240346  )
       155           C   tau( 155) = (  0.0107620  0.8000679  0.9759654  )
       156           C   tau( 156) = (  0.5107620  0.8000679  0.9759654  )
       157           C   tau( 157) = (  0.2607620  0.6999321  0.4759654  )
       158           C   tau( 158) = (  0.7607620  0.6999321  0.4759654  )
       159           C   tau( 159) = (  0.2392380  0.3000679  0.5240346  )
       160           C   tau( 160) = (  0.7392380  0.3000679  0.5240346  )
       161           C   tau( 161) = (  0.4222852  0.1614214  0.9581606  )
       162           C   tau( 162) = (  0.9222852  0.1614214  0.9581606  )
       163           C   tau( 163) = (  0.0777149  0.8385786  0.0418394  )
       164           C   tau( 164) = (  0.5777149  0.8385786  0.0418394  )
       165           C   tau( 165) = (  0.3277148  0.6614214  0.5418394  )
       166           C   tau( 166) = (  0.8277148  0.6614214  0.5418394  )
       167           C   tau( 167) = (  0.1722852  0.3385786  0.4581606  )
       168           C   tau( 168) = (  0.6722852  0.3385786  0.4581606  )
       169           C   tau( 169) = (  0.4415863  0.1143785  0.8702030  )
       170           C   tau( 170) = (  0.9415863  0.1143785  0.8702030  )
       171           C   tau( 171) = (  0.0584137  0.8856216  0.1297970  )
       172           C   tau( 172) = (  0.5584137  0.8856216  0.1297970  )
       173           C   tau( 173) = (  0.3084137  0.6143784  0.6297970  )
       174           C   tau( 174) = (  0.8084137  0.6143784  0.6297970  )
       175           C   tau( 175) = (  0.1915863  0.3856215  0.3702030  )
       176           C   tau( 176) = (  0.6915863  0.3856215  0.3702030  )
       177           C   tau( 177) = (  0.1985467  0.0555317  0.3197710  )
       178           C   tau( 178) = (  0.6985467  0.0555317  0.3197710  )
       179           C   tau( 179) = (  0.3014533  0.9444683  0.6802290  )
       180           C   tau( 180) = (  0.8014533  0.9444683  0.6802290  )
       181           C   tau( 181) = (  0.0514533  0.5555317  0.1802290  )
       182           C   tau( 182) = (  0.5514533  0.5555317  0.1802290  )
       183           C   tau( 183) = (  0.4485467  0.4444683  0.8197710  )
       184           C   tau( 184) = (  0.9485467  0.4444683  0.8197710  )
       185           C   tau( 185) = (  0.1189695  0.1143526  0.3022400  )
       186           C   tau( 186) = (  0.6189695  0.1143526  0.3022400  )
       187           C   tau( 187) = (  0.3810305  0.8856474  0.6977601  )
       188           C   tau( 188) = (  0.8810305  0.8856474  0.6977601  )
       189           C   tau( 189) = (  0.1310305  0.6143526  0.1977600  )
       190           C   tau( 190) = (  0.6310305  0.6143526  0.1977600  )
       191           C   tau( 191) = (  0.3689695  0.3856474  0.8022399  )
       192           C   tau( 192) = (  0.8689695  0.3856474  0.8022399  )
       193           C   tau( 193) = (  0.0997795  0.1742903  0.2155954  )
       194           C   tau( 194) = (  0.5997795  0.1742903  0.2155954  )
       195           C   tau( 195) = (  0.4002205  0.8257098  0.7844046  )
       196           C   tau( 196) = (  0.9002205  0.8257098  0.7844046  )
       197           C   tau( 197) = (  0.1502205  0.6742902  0.2844046  )
       198           C   tau( 198) = (  0.6502205  0.6742902  0.2844046  )
       199           C   tau( 199) = (  0.3497795  0.3257098  0.7155954  )
       200           C   tau( 200) = (  0.8497795  0.3257098  0.7155954  )
       201           C   tau( 201) = (  0.1908780  0.3417364  0.0388795  )
       202           C   tau( 202) = (  0.6908780  0.3417364  0.0388795  )
       203           C   tau( 203) = (  0.3091220  0.6582636  0.9611205  )
       204           C   tau( 204) = (  0.8091220  0.6582636  0.9611205  )
       205           C   tau( 205) = (  0.0591220  0.8417364  0.4611205  )
       206           C   tau( 206) = (  0.5591220  0.8417364  0.4611205  )
       207           C   tau( 207) = (  0.4408780  0.1582636  0.5388795  )
       208           C   tau( 208) = (  0.9408780  0.1582636  0.5388795  )
       209           C   tau( 209) = (  0.0966523  0.1422284  0.9092450  )
       210           C   tau( 210) = (  0.5966523  0.1422284  0.9092450  )
       211           C   tau( 211) = (  0.4033477  0.8577716  0.0907550  )
       212           C   tau( 212) = (  0.9033477  0.8577716  0.0907550  )
       213           C   tau( 213) = (  0.1533477  0.6422284  0.5907550  )
       214           C   tau( 214) = (  0.6533477  0.6422284  0.5907550  )
       215           C   tau( 215) = (  0.3466523  0.3577716  0.4092450  )
       216           C   tau( 216) = (  0.8466523  0.3577716  0.4092450  )
       217           C   tau( 217) = (  0.0291638  0.1046653  0.8452860  )
       218           C   tau( 218) = (  0.5291638  0.1046653  0.8452860  )
       219           C   tau( 219) = (  0.4708362  0.8953347  0.1547140  )
       220           C   tau( 220) = (  0.9708362  0.8953347  0.1547140  )
       221           C   tau( 221) = (  0.2208362  0.6046653  0.6547140  )
       222           C   tau( 222) = (  0.7208362  0.6046653  0.6547140  )
       223           C   tau( 223) = (  0.2791638  0.3953347  0.3452860  )
       224           C   tau( 224) = (  0.7791638  0.3953347  0.3452860  )
       225           C   tau( 225) = (  0.4652985  0.2429398  0.1174768  )
       226           C   tau( 226) = (  0.9652985  0.2429398  0.1174768  )
       227           C   tau( 227) = (  0.0347015  0.7570601  0.8825232  )
       228           C   tau( 228) = (  0.5347015  0.7570601  0.8825232  )
       229           C   tau( 229) = (  0.2847015  0.7429399  0.3825232  )
       230           C   tau( 230) = (  0.7847015  0.7429399  0.3825232  )
       231           C   tau( 231) = (  0.2152985  0.2570602  0.6174768  )
       232           C   tau( 232) = (  0.7152985  0.2570602  0.6174768  )
       233           C   tau( 233) = (  0.0133630  0.2304127  0.2005210  )
       234           C   tau( 234) = (  0.5133630  0.2304127  0.2005210  )
       235           C   tau( 235) = (  0.4866370  0.7695873  0.7994791  )
       236           C   tau( 236) = (  0.9866370  0.7695873  0.7994791  )
       237           C   tau( 237) = (  0.2366370  0.7304127  0.2994790  )
       238           C   tau( 238) = (  0.7366370  0.7304127  0.2994790  )
       239           C   tau( 239) = (  0.2633630  0.2695873  0.7005209  )
       240           C   tau( 240) = (  0.7633630  0.2695873  0.7005209  )

     number of k points=     8  Gaussian smearing, width (Ry)=  0.0007
                       cart. coord. in units 2pi/alat
        k(    1) = (   0.0000000   0.0000000   0.0000000), wk =   0.2500000
        k(    2) = (   0.0000000   0.0000000  -0.5417756), wk =   0.2500000
        k(    3) = (   0.0000000  -0.6749509   0.0000000), wk =   0.2500000
        k(    4) = (   0.0000000  -0.6749509  -0.5417756), wk =   0.2500000
        k(    5) = (  -0.5000000   0.0000000  -0.0256614), wk =   0.2500000
        k(    6) = (  -0.5000000   0.0000000  -0.5674370), wk =   0.2500000
        k(    7) = (  -0.5000000  -0.6749509  -0.0256614), wk =   0.2500000
        k(    8) = (  -0.5000000  -0.6749509  -0.5674370), wk =   0.2500000

                       cryst. coord.
        k(    1) = (   0.0000000   0.0000000   0.0000000), wk =   0.2500000
        k(    2) = (   0.0000000   0.0000000  -0.5000000), wk =   0.2500000
        k(    3) = (   0.0000000  -0.5000000   0.0000000), wk =   0.2500000
        k(    4) = (   0.0000000  -0.5000000  -0.5000000), wk =   0.2500000
        k(    5) = (  -0.5000000   0.0000000   0.0000000), wk =   0.2500000
        k(    6) = (  -0.5000000   0.0000000  -0.5000000), wk =   0.2500000
        k(    7) = (  -0.5000000  -0.5000000   0.0000000), wk =   0.2500000
        k(    8) = (  -0.5000000  -0.5000000  -0.5000000), wk =   0.2500000

     Dense  grid:  7242467 G-vectors     FFT dimensions: ( 288, 216, 256)

     Smooth grid:  1393933 G-vectors     FFT dimensions: ( 160, 120, 150)

     Dynamical RAM for                 wfc:      70.12 MB

     Dynamical RAM for     wfc (w. buffer):     631.05 MB

     Dynamical RAM for                 EXX:    9626.39 MB

     Dynamical RAM for           str. fact:      27.63 MB

     Dynamical RAM for           local pot:       0.00 MB

     Dynamical RAM for          nlocal pot:     229.96 MB

     Dynamical RAM for                qrad:      31.42 MB

     Dynamical RAM for          rho,v,vnew:      43.50 MB

     Dynamical RAM for               rhoin:      14.50 MB

     Dynamical RAM for            rho*nmix:     110.51 MB

     Dynamical RAM for           G-vectors:      26.57 MB

     Dynamical RAM for          h,s,v(r/c):       8.15 MB

     Dynamical RAM for          <psi|beta>:       8.91 MB

     Dynamical RAM for                 psi:     280.47 MB

     Dynamical RAM for                hpsi:     280.47 MB

     Dynamical RAM for                spsi:     280.47 MB

     Dynamical RAM for      wfcinit/wfcrot:     233.65 MB

     Dynamical RAM for           addusdens:    1560.97 MB

     Estimated static dynamical RAM per process >      10.56 GB

     Estimated max dynamical RAM per process >      12.08 GB

     Estimated total dynamical RAM >     193.36 GB

     Initial potential from superposition of free atoms

     starting charge  703.99412, renormalised to  704.00000
     Starting wfcs are  672 randomized atomic wfcs

     total cpu time spent up to now is      194.3 secs

     Self-consistent Calculation

     iteration #  1     ecut=    75.00 Ry     beta= 0.70
     Davidson diagonalization with overlap
     ethr =  1.00E-02,  avg # of iterations =  2.2

     total cpu time spent up to now is      615.8 secs

     total energy              =   -2065.63832188 Ry
     Harris-Foulkes estimate   =   -2083.10073594 Ry
     estimated scf accuracy    <      27.48713548 Ry

     iteration #  2     ecut=    75.00 Ry     beta= 0.70
     Davidson diagonalization with overlap
     ethr =  3.90E-03,  avg # of iterations =  4.2

     total cpu time spent up to now is     1037.4 secs

     total energy              =   -2070.30616302 Ry
     Harris-Foulkes estimate   =   -2075.38568972 Ry
     estimated scf accuracy    <       8.69720329 Ry

     iteration #  3     ecut=    75.00 Ry     beta= 0.70
     Davidson diagonalization with overlap
     ethr =  1.24E-03,  avg # of iterations =  2.4

     total cpu time spent up to now is     1408.6 secs

     total energy              =   -2072.24937008 Ry
     Harris-Foulkes estimate   =   -2073.24269932 Ry
     estimated scf accuracy    <       1.91447790 Ry

     iteration #  4     ecut=    75.00 Ry     beta= 0.70
     Davidson diagonalization with overlap
     ethr =  2.72E-04,  avg # of iterations =  6.5

     total cpu time spent up to now is     1830.4 secs

     total energy              =   -2072.68019176 Ry
     Harris-Foulkes estimate   =   -2072.90018898 Ry
     estimated scf accuracy    <       0.49727487 Ry

     iteration #  5     ecut=    75.00 Ry     beta= 0.70
     Davidson diagonalization with overlap
     ethr =  7.06E-05,  avg # of iterations =  5.5

     total cpu time spent up to now is     2212.1 secs

     total energy              =   -2072.77960205 Ry
     Harris-Foulkes estimate   =   -2072.79030786 Ry
     estimated scf accuracy    <       0.02100375 Ry

     iteration #  6     ecut=    75.00 Ry     beta= 0.70
     Davidson diagonalization with overlap
     ethr =  2.98E-06,  avg # of iterations =  8.5

     total cpu time spent up to now is     2722.0 secs

     total energy              =   -2072.78508181 Ry
     Harris-Foulkes estimate   =   -2072.78670430 Ry
     estimated scf accuracy    <       0.00329908 Ry

     iteration #  7     ecut=    75.00 Ry     beta= 0.70
     Davidson diagonalization with overlap
     ethr =  4.69E-07,  avg # of iterations =  2.5

     total cpu time spent up to now is     3068.5 secs

     total energy              =   -2072.78579490 Ry
     Harris-Foulkes estimate   =   -2072.78613350 Ry
     estimated scf accuracy    <       0.00074954 Ry

     iteration #  8     ecut=    75.00 Ry     beta= 0.70
     Davidson diagonalization with overlap
     ethr =  1.06E-07,  avg # of iterations =  2.0

     total cpu time spent up to now is     3392.4 secs

     total energy              =   -2072.78595279 Ry
     Harris-Foulkes estimate   =   -2072.78597777 Ry
     estimated scf accuracy    <       0.00005165 Ry

     iteration #  9     ecut=    75.00 Ry     beta= 0.70
     Davidson diagonalization with overlap
     ethr =  7.34E-09,  avg # of iterations =  2.0

     total cpu time spent up to now is     3751.4 secs

     total energy              =   -2072.78596316 Ry
     Harris-Foulkes estimate   =   -2072.78597645 Ry
     estimated scf accuracy    <       0.00003255 Ry

     iteration # 10     ecut=    75.00 Ry     beta= 0.70
     Davidson diagonalization with overlap
     ethr =  4.62E-09,  avg # of iterations =  2.0

     total cpu time spent up to now is     4059.3 secs

     total energy              =   -2072.78596954 Ry
     Harris-Foulkes estimate   =   -2072.78597098 Ry
     estimated scf accuracy    <       0.00000356 Ry

     iteration # 11     ecut=    75.00 Ry     beta= 0.70
     Davidson diagonalization with overlap
     ethr =  5.06E-10,  avg # of iterations =  2.0

     total cpu time spent up to now is     4390.2 secs

     total energy              =   -2072.78597034 Ry
     Harris-Foulkes estimate   =   -2072.78597051 Ry
     estimated scf accuracy    <       0.00000043 Ry

     iteration # 12     ecut=    75.00 Ry     beta= 0.70
     Davidson diagonalization with overlap
     ethr =  6.15E-11,  avg # of iterations =  2.0

     total cpu time spent up to now is     4721.2 secs

     total energy              =   -2072.78597043 Ry
     Harris-Foulkes estimate   =   -2072.78597047 Ry
     estimated scf accuracy    <       0.00000010 Ry

     iteration # 13     ecut=    75.00 Ry     beta= 0.70
     Davidson diagonalization with overlap
     ethr =  1.44E-11,  avg # of iterations =  2.0

     total cpu time spent up to now is     5052.9 secs

     total energy              =   -2072.78597045 Ry
     Harris-Foulkes estimate   =   -2072.78597046 Ry
     estimated scf accuracy    <       0.00000002 Ry

     iteration # 14     ecut=    75.00 Ry     beta= 0.70
     Davidson diagonalization with overlap
     ethr =  2.65E-12,  avg # of iterations =  2.0

     total cpu time spent up to now is     5379.6 secs

     End of self-consistent calculation

          k = 0.0000 0.0000 0.0000 (174219 PWs)   bands (ev):

   -19.9025 -19.9016 -19.9010 -19.8777 -19.8199 -19.8191 -19.8186 -19.7715
   -17.5754 -17.5745 -17.5734 -17.5732 -17.5722 -17.5700 -17.5682 -17.5588
   -16.0356 -16.0274 -16.0268 -16.0213 -15.9608 -15.9512 -15.9500 -15.9456
   -15.1541 -15.1257 -15.1242 -15.1223 -15.1220 -15.1207 -15.1077 -15.0791
   -14.9014 -14.8189 -14.8179 -14.8062 -14.8046 -14.7879 -14.7873 -14.7433
   -13.6539 -13.6536 -13.6274 -13.6142 -13.6023 -13.6021 -13.5923 -13.5783
   -12.5448 -12.5368 -12.5299 -12.5292 -12.5099 -12.5053 -12.4831 -12.4826
   -12.4212 -12.3936 -12.3792 -12.3766 -12.3761 -12.3677 -12.3670 -12.3399
   -11.9078 -11.9067 -11.9004 -11.8766 -11.8560 -11.8390 -11.8383 -11.8156
   -11.3072 -11.3061 -11.3025 -11.2810 -11.2794 -11.2182 -11.2174 -11.2146
    -9.7032  -9.6941  -9.6927  -9.6816  -9.6119  -9.6098  -9.6090  -9.6052
    -9.5068  -9.5053  -9.4969  -9.4902  -9.4874  -9.4777  -9.4619  -9.4610
    -8.7692  -8.7494  -8.7343  -8.7027  -8.7020  -8.6718  -8.6703  -8.6669
    -8.6140  -8.6084  -8.6080  -8.5939  -8.5816  -8.5714  -8.5704  -8.5702
    -7.9061  -7.9059  -7.8711  -7.8501  -7.8496  -7.8286  -7.8268  -7.8168
    -7.6664  -7.6375  -7.6363  -7.6180  -7.5495  -7.5480  -7.5463  -7.5325
    -7.3897  -7.3371  -7.3307  -7.3305  -7.2442  -7.2139  -7.2136  -7.2051
    -6.5089  -6.5082  -6.4919  -6.3924  -6.2562  -6.2534  -6.2528  -6.2318
    -6.0589  -6.0580  -6.0261  -6.0226  -6.0024  -6.0020  -5.9772  -5.9492
    -5.9413  -5.7914  -5.7910  -5.7903  -5.6812  -5.6805  -5.6781  -5.6610
    -5.6594  -5.6587  -5.6502  -5.6455  -5.5570  -5.5567  -5.5471  -5.4772
    -5.1358  -5.1298  -5.1264  -5.0762  -5.0756  -5.0558  -5.0018  -5.0010
    -4.9034  -4.9028  -4.8542  -4.7529  -4.7237  -4.7233  -4.7009  -4.6281
    -4.5895  -4.5769  -4.5765  -4.5730  -4.5693  -4.5461  -4.5455  -4.5413
    -4.3178  -4.3173  -4.3114  -4.2881  -4.2870  -4.2825  -4.2770  -4.2678
    -4.2079  -4.2072  -4.2068  -4.1928  -4.1504  -4.1372  -4.1370  -4.0903
    -4.0895  -4.0870  -4.0283  -3.9551  -3.9548  -3.9298  -3.9117  -3.8683
    -3.8495  -3.8176  -3.8160  -3.7703  -3.7654  -3.7068  -3.6828  -3.6800
    -3.6459  -3.6367  -3.6146  -3.5821  -3.5779  -3.5423  -3.5378  -3.4982
    -3.3155  -3.3150  -3.2923  -3.2516  -3.1804  -3.0543  -3.0538  -3.0345
    -3.0159  -2.9865  -2.9861  -2.9340  -2.9231  -2.8401  -2.8360  -2.8357
    -2.8065  -2.8005  -2.8004  -2.7816  -2.7121  -2.6609  -2.6605  -2.5235
    -2.4026  -2.3572  -2.3456  -2.3452  -2.3375  -2.2692  -2.2333  -2.2116
    -2.2091  -2.2088  -2.2021  -2.2019  -2.1632  -2.1631  -2.1319  -2.1158
    -2.1155  -2.1100  -2.1098  -2.0954  -2.0104  -1.9419  -1.8841  -1.8840
    -1.7588  -1.7586  -1.6957  -1.6952  -1.6800  -1.5996  -1.5934  -1.5232
    -1.3852  -1.3681  -1.3338  -1.2816  -1.2814  -1.0977  -1.0389  -1.0388
    -0.7897  -0.7137  -0.7133  -0.5949  -0.5858  -0.5375  -0.5370  -0.4708
    -0.3703  -0.3605  -0.3114  -0.3108  -0.2700  -0.2456  -0.2453  -0.2023
    -0.2004  -0.1734  -0.1448  -0.0829  -0.0530  -0.0521  -0.0249  -0.0243
    -0.0192  -0.0139  -0.0026   0.0154   0.1377   0.1489   0.1503   0.1551
     0.2745   0.3110   0.3130   0.3305   0.3357   0.3638   0.3646   0.4773
     0.5163   0.5467   0.5549   0.5563   0.5641   0.6672   0.6681   0.7483
     0.9392   0.9405   0.9596   0.9620   1.0818   1.0827   1.1259   1.1369
     4.1046   4.1047   4.1639   4.1809   4.1943   4.1943   4.2195   4.2913
     4.6279   4.7331   4.8461   4.8469   4.9187   4.9196   4.9594   5.0035
     5.1294   5.1554   5.1557   5.2096   5.2884   5.2931   5.2935   5.3516
     5.3835   5.4036   5.4262   5.4268   5.4388   5.4886   5.5225   5.5229
     6.0641   6.4306   6.4368   6.4680   6.4764   6.6019   6.6032   6.6984
     6.6994   6.7301   6.7752   6.7985   6.8010   6.8012   6.8152   6.8328
     6.8392   6.8431   6.8799   6.8882   6.8892   6.9524   6.9875   7.1622
     7.1629   7.2270   7.2276   7.2864   7.4678   7.4682   7.5289   7.5625
     7.5637   7.5642   7.8436   7.9116   7.9356   7.9360

     occupation numbers 
     1.0000   1.0000   1.0000   1.0000   1.0000   1.0000   1.0000   1.0000
     1.0000   1.0000   1.0000   1.0000   1.0000   1.0000   1.0000   1.0000
     1.0000   1.0000   1.0000   1.0000   1.0000   1.0000   1.0000   1.0000
     1.0000   1.0000   1.0000   1.0000   1.0000   1.0000   1.0000   1.0000
     1.0000   1.0000   1.0000   1.0000   1.0000   1.0000   1.0000   1.0000
     1.0000   1.0000   1.0000   1.0000   1.0000   1.0000   1.0000   1.0000
     1.0000   1.0000   1.0000   1.0000   1.0000   1.0000   1.0000   1.0000
     1.0000   1.0000   1.0000   1.0000   1.0000   1.0000   1.0000   1.0000
     1.0000   1.0000   1.0000   1.0000   1.0000   1.0000   1.0000   1.0000
     1.0000   1.0000   1.0000   1.0000   1.0000   1.0000   1.0000   1.0000
     1.0000   1.0000   1.0000   1.0000   1.0000   1.0000   1.0000   1.0000
     1.0000   1.0000   1.0000   1.0000   1.0000   1.0000   1.0000   1.0000
     1.0000   1.0000   1.0000   1.0000   1.0000   1.0000   1.0000   1.0000
     1.0000   1.0000   1.0000   1.0000   1.0000   1.0000   1.0000   1.0000
     1.0000   1.0000   1.0000   1.0000   1.0000   1.0000   1.0000   1.0000
     1.0000   1.0000   1.0000   1.0000   1.0000   1.0000   1.0000   1.0000
     1.0000   1.0000   1.0000   1.0000   1.0000   1.0000   1.0000   1.0000
     1.0000   1.0000   1.0000   1.0000   1.0000   1.0000   1.0000   1.0000
     1.0000   1.0000   1.0000   1.0000   1.0000   1.0000   1.0000   1.0000
     1.0000   1.0000   1.0000   1.0000   1.0000   1.0000   1.0000   1.0000
     1.0000   1.0000   1.0000   1.0000   1.0000   1.0000   1.0000   1.0000
     1.0000   1.0000   1.0000   1.0000   1.0000   1.0000   1.0000   1.0000
     1.0000   1.0000   1.0000   1.0000   1.0000   1.0000   1.0000   1.0000
     1.0000   1.0000   1.0000   1.0000   1.0000   1.0000   1.0000   1.0000
     1.0000   1.0000   1.0000   1.0000   1.0000   1.0000   1.0000   1.0000
     1.0000   1.0000   1.0000   1.0000   1.0000   1.0000   1.0000   1.0000
     1.0000   1.0000   1.0000   1.0000   1.0000   1.0000   1.0000   1.0000
     1.0000   1.0000   1.0000   1.0000   1.0000   1.0000   1.0000   1.0000
     1.0000   1.0000   1.0000   1.0000   1.0000   1.0000   1.0000   1.0000
     1.0000   1.0000   1.0000   1.0000   1.0000   1.0000   1.0000   1.0000
     1.0000   1.0000   1.0000   1.0000   1.0000   1.0000   1.0000   1.0000
     1.0000   1.0000   1.0000   1.0000   1.0000   1.0000   1.0000   1.0000
     1.0000   1.0000   1.0000   1.0000   1.0000   1.0000   1.0000   1.0000
     1.0000   1.0000   1.0000   1.0000   1.0000   1.0000   1.0000   1.0000
     1.0000   1.0000   1.0000   1.0000   1.0000   1.0000   1.0000   1.0000
     1.0000   1.0000   1.0000   1.0000   1.0000   1.0000   1.0000   1.0000
     1.0000   1.0000   1.0000   1.0000   1.0000   1.0000   1.0000   1.0000
     1.0000   1.0000   1.0000   1.0000   1.0000   1.0000   1.0000   1.0000
     1.0000   1.0000   1.0000   1.0000   1.0000   1.0000   1.0000   1.0000
     1.0000   1.0000   1.0000   1.0000   1.0000   1.0000   1.0000   1.0000
     1.0000   1.0000   1.0000   1.0000   1.0000   1.0000   1.0000   1.0000
     1.0000   1.0000   1.0000   1.0000   1.0000   1.0000   1.0000   1.0000
     1.0000   1.0000   1.0000   1.0000   1.0000   1.0000   1.0000   1.0000
     1.0000   1.0000   1.0000   1.0000   1.0000   1.0000   1.0000   1.0000
     0.0000   0.0000   0.0000   0.0000   0.0000   0.0000   0.0000   0.0000
     0.0000   0.0000   0.0000   0.0000   0.0000   0.0000   0.0000   0.0000
     0.0000   0.0000   0.0000   0.0000   0.0000   0.0000   0.0000   0.0000
     0.0000   0.0000   0.0000   0.0000   0.0000   0.0000   0.0000   0.0000
     0.0000   0.0000   0.0000   0.0000   0.0000   0.0000   0.0000   0.0000
     0.0000   0.0000   0.0000   0.0000   0.0000   0.0000   0.0000   0.0000
     0.0000   0.0000   0.0000   0.0000   0.0000   0.0000   0.0000   0.0000
     0.0000   0.0000   0.0000   0.0000   0.0000   0.0000   0.0000   0.0000
     0.0000   0.0000   0.0000   0.0000   0.0000   0.0000

          k = 0.0000 0.0000-0.5418 (174258 PWs)   bands (ev):

   -19.9024 -19.9016 -19.9010 -19.8777 -19.8199 -19.8191 -19.8186 -19.7715
   -17.5754 -17.5746 -17.5734 -17.5732 -17.5721 -17.5695 -17.5686 -17.5588
   -16.0298 -16.0286 -16.0280 -16.0248 -15.9543 -15.9536 -15.9522 -15.9475
   -15.1454 -15.1437 -15.1353 -15.1348 -15.1033 -15.1022 -15.0992 -15.0946
   -14.8588 -14.8504 -14.8499 -14.8135 -14.7810 -14.7722 -14.7708 -14.7684
   -13.6691 -13.6256 -13.6219 -13.6197 -13.6189 -13.5965 -13.5866 -13.5864
   -12.5397 -12.5390 -12.5324 -12.5258 -12.5079 -12.5075 -12.4885 -12.4791
   -12.4031 -12.4011 -12.3995 -12.3917 -12.3690 -12.3683 -12.3473 -12.3392
   -11.9438 -11.8775 -11.8761 -11.8737 -11.8652 -11.8443 -11.8436 -11.8171
   -11.3472 -11.3025 -11.3017 -11.2520 -11.2386 -11.2380 -11.2257 -11.2237
    -9.6977  -9.6926  -9.6912  -9.6704  -9.6278  -9.6107  -9.6099  -9.6057
    -9.5076  -9.4980  -9.4970  -9.4888  -9.4877  -9.4765  -9.4761  -9.4600
    -8.7577  -8.7566  -8.7045  -8.7031  -8.6999  -8.6949  -8.6807  -8.6638
    -8.6194  -8.6024  -8.5984  -8.5977  -8.5897  -8.5844  -8.5840  -8.5435
    -7.9143  -7.8970  -7.8571  -7.8476  -7.8472  -7.8447  -7.8258  -7.8254
    -7.6547  -7.6432  -7.6422  -7.6112  -7.5713  -7.5399  -7.5386  -7.5354
    -7.3712  -7.3612  -7.3610  -7.2894  -7.2426  -7.2227  -7.2224  -7.1842
    -6.5491  -6.4640  -6.4491  -6.4484  -6.2821  -6.2343  -6.2336  -6.1922
    -6.0884  -6.0315  -6.0300  -6.0183  -6.0169  -6.0167  -5.9797  -5.9793
    -5.8627  -5.8626  -5.7998  -5.7805  -5.6787  -5.6769  -5.6753  -5.6745
    -5.6740  -5.6561  -5.6557  -5.6464  -5.5912  -5.5238  -5.5099  -5.5095
    -5.1127  -5.1119  -5.0971  -5.0962  -5.0915  -5.0670  -5.0214  -5.0079
    -4.9486  -4.7954  -4.7915  -4.7909  -4.7889  -4.6754  -4.6752  -4.6370
    -4.6296  -4.5851  -4.5846  -4.5659  -4.5566  -4.5556  -4.5538  -4.5434
    -4.3247  -4.3233  -4.3217  -4.3210  -4.2889  -4.2671  -4.2632  -4.2620
    -4.2215  -4.1976  -4.1872  -4.1867  -4.1608  -4.1428  -4.1119  -4.1114
    -4.0682  -4.0208  -4.0200  -4.0132  -3.9603  -3.9347  -3.8941  -3.8925
    -3.8417  -3.8177  -3.8110  -3.8083  -3.7316  -3.6882  -3.6852  -3.6783
    -3.6652  -3.6628  -3.6172  -3.6044  -3.5557  -3.5514  -3.5172  -3.4889
    -3.3529  -3.2778  -3.2770  -3.2441  -3.1349  -3.0622  -3.0619  -3.0307
    -3.0174  -3.0171  -3.0006  -2.9962  -2.9385  -2.8363  -2.8361  -2.8212
    -2.8097  -2.7615  -2.7613  -2.7531  -2.7239  -2.7003  -2.7001  -2.4980
    -2.3761  -2.3756  -2.3360  -2.3242  -2.3083  -2.3080  -2.2446  -2.2442
    -2.2231  -2.2175  -2.2142  -2.1649  -2.1648  -2.1466  -2.1386  -2.1358
    -2.1353  -2.1130  -2.0743  -2.0664  -1.9703  -1.9698  -1.9466  -1.8842
    -1.7888  -1.7443  -1.7054  -1.6410  -1.6320  -1.6319  -1.5455  -1.5452
    -1.4245  -1.4243  -1.2888  -1.1942  -1.1900  -1.1897  -1.1753  -0.9690
    -0.8368  -0.6646  -0.6642  -0.6461  -0.6122  -0.5252  -0.5251  -0.4532
    -0.3692  -0.2904  -0.2841  -0.2820  -0.2808  -0.2620  -0.2542  -0.2524
    -0.2174  -0.1836  -0.1832  -0.1451  -0.0400  -0.0384  -0.0277  -0.0226
    -0.0085  -0.0005   0.0002   0.0256   0.1420   0.1437   0.1474   0.1557
     0.2836   0.2902   0.3045   0.3062   0.3885   0.3981   0.3994   0.4063
     0.4935   0.5342   0.5357   0.5668   0.6039   0.6949   0.6959   0.7190
     0.9328   0.9431   0.9652   0.9659   1.0591   1.0975   1.1242   1.1247
     4.0692   4.1548   4.1634   4.1659   4.1662   4.2224   4.2518   4.2519
     4.7061   4.7069   4.8373   4.8418   4.8943   4.9817   4.9979   4.9984
     5.0516   5.1411   5.1420   5.1936   5.2816   5.2819   5.3044   5.3101
     5.3829   5.4160   5.4162   5.4505   5.4737   5.4742   5.4751   5.6087
     6.2442   6.2449   6.3530   6.5073   6.5231   6.5289   6.6326   6.6342
     6.6755   6.7227   6.7246   6.7263   6.7791   6.8299   6.8485   6.8639
     6.8871   6.8939   6.9395   6.9406   6.9734   6.9789   7.0177   7.0179
     7.0187   7.1300   7.2770   7.3560   7.3734   7.4933   7.5495   7.6722
     7.6732   7.6926   7.7219   7.8158   7.8169   7.9581

     occupation numbers 
     1.0000   1.0000   1.0000   1.0000   1.0000   1.0000   1.0000   1.0000
[...]
     1.0000   1.0000   1.0000   1.0000   1.0000   1.0000   1.0000   1.0000
     1.0000   1.0000   1.0000   1.0000   1.0000   1.0000   1.0000   1.0000
     1.0000   1.0000   1.0000   1.0000   1.0000   1.0000   1.0000   1.0000
     1.0000   1.0000   1.0000   1.0000   1.0000   1.0000   1.0000   1.0000
     1.0000   1.0000   1.0000   1.0000   1.0000   1.0000   1.0000   1.0000
     1.0000   1.0000   1.0000   1.0000   1.0000   1.0000   1.0000   1.0000
     1.0000   1.0000   1.0000   1.0000   1.0000   1.0000   1.0000   1.0000
     1.0000   1.0000   1.0000   1.0000   1.0000   1.0000   1.0000   1.0000
     1.0000   1.0000   1.0000   1.0000   1.0000   1.0000   1.0000   1.0000
     1.0000   1.0000   1.0000   1.0000   1.0000   1.0000   1.0000   1.0000
     1.0000   1.0000   1.0000   1.0000   1.0000   1.0000   1.0000   1.0000
     1.0000   1.0000   1.0000   1.0000   1.0000   1.0000   1.0000   1.0000
     1.0000   1.0000   1.0000   1.0000   1.0000   1.0000   1.0000   1.0000
     1.0000   1.0000   1.0000   1.0000   1.0000   1.0000   1.0000   1.0000
     1.0000   1.0000   1.0000   1.0000   1.0000   1.0000   1.0000   1.0000
     1.0000   1.0000   1.0000   1.0000   1.0000   1.0000   1.0000   1.0000
     1.0000   1.0000   1.0000   1.0000   1.0000   1.0000   1.0000   1.0000
     1.0000   1.0000   1.0000   1.0000   1.0000   1.0000   1.0000   1.0000
     1.0000   1.0000   1.0000   1.0000   1.0000   1.0000   1.0000   1.0000
     1.0000   1.0000   1.0000   1.0000   1.0000   1.0000   1.0000   1.0000
     1.0000   1.0000   1.0000   1.0000   1.0000   1.0000   1.0000   1.0000
     1.0000   1.0000   1.0000   1.0000   1.0000   1.0000   1.0000   1.0000
     1.0000   1.0000   1.0000   1.0000   1.0000   1.0000   1.0000   1.0000
     1.0000   1.0000   1.0000   1.0000   1.0000   1.0000   1.0000   1.0000
     1.0000   1.0000   1.0000   1.0000   1.0000   1.0000   1.0000   1.0000
     1.0000   1.0000   1.0000   1.0000   1.0000   1.0000   1.0000   1.0000
     1.0000   1.0000   1.0000   1.0000   1.0000   1.0000   1.0000   1.0000
     1.0000   1.0000   1.0000   1.0000   1.0000   1.0000   1.0000   1.0000
     1.0000   1.0000   1.0000   1.0000   1.0000   1.0000   1.0000   1.0000
     1.0000   1.0000   1.0000   1.0000   1.0000   1.0000   1.0000   1.0000
     1.0000   1.0000   1.0000   1.0000   1.0000   1.0000   1.0000   1.0000
     1.0000   1.0000   1.0000   1.0000   1.0000   1.0000   1.0000   1.0000
     1.0000   1.0000   1.0000   1.0000   1.0000   1.0000   1.0000   1.0000
     1.0000   1.0000   1.0000   1.0000   1.0000   1.0000   1.0000   1.0000
     1.0000   1.0000   1.0000   1.0000   1.0000   1.0000   1.0000   1.0000
     1.0000   1.0000   1.0000   1.0000   1.0000   1.0000   1.0000   1.0000
     1.0000   1.0000   1.0000   1.0000   1.0000   1.0000   1.0000   1.0000
     1.0000   1.0000   1.0000   1.0000   1.0000   1.0000   1.0000   1.0000
     1.0000   1.0000   1.0000   1.0000   1.0000   1.0000   1.0000   1.0000
     0.0000   0.0000   0.0000   0.0000   0.0000   0.0000   0.0000   0.0000
     0.0000   0.0000   0.0000   0.0000   0.0000   0.0000   0.0000   0.0000
     0.0000   0.0000   0.0000   0.0000   0.0000   0.0000   0.0000   0.0000
     0.0000   0.0000   0.0000   0.0000   0.0000   0.0000   0.0000   0.0000
     0.0000   0.0000   0.0000   0.0000   0.0000   0.0000   0.0000   0.0000
     0.0000   0.0000   0.0000   0.0000   0.0000   0.0000   0.0000   0.0000
     0.0000   0.0000   0.0000   0.0000   0.0000   0.0000   0.0000   0.0000
     0.0000   0.0000   0.0000   0.0000   0.0000   0.0000   0.0000   0.0000
     0.0000   0.0000   0.0000   0.0000   0.0000   0.0000

          k =-0.5000-0.6750-0.0257 (174280 PWs)   bands (ev):

   -19.9023 -19.9016 -19.9011 -19.8777 -19.8199 -19.8192 -19.8186 -19.7715
   -17.5750 -17.5743 -17.5739 -17.5723 -17.5710 -17.5704 -17.5695 -17.5592
   -16.0296 -16.0285 -16.0279 -16.0274 -15.9528 -15.9520 -15.9516 -15.9497
   -15.1379 -15.1358 -15.1349 -15.1344 -15.1052 -15.1033 -15.1025 -15.1020
   -14.8494 -14.8467 -14.8465 -14.8453 -14.7725 -14.7698 -14.7695 -14.7683
   -13.6318 -13.6298 -13.6294 -13.6282 -13.6031 -13.6014 -13.6009 -13.5996
   -12.5362 -12.5352 -12.5342 -12.5339 -12.4954 -12.4946 -12.4935 -12.4933
   -12.4033 -12.4008 -12.4001 -12.3994 -12.3576 -12.3553 -12.3547 -12.3540
   -11.8935 -11.8910 -11.8903 -11.8897 -11.8490 -11.8466 -11.8459 -11.8452
   -11.2771 -11.2742 -11.2736 -11.2725 -11.2574 -11.2551 -11.2544 -11.2533
    -9.6891  -9.6866  -9.6857  -9.6852  -9.5895  -9.5883  -9.5875  -9.5872
    -9.5477  -9.5460  -9.5451  -9.5447  -9.4574  -9.4555  -9.4545  -9.4544
    -8.7246  -8.7217  -8.7207  -8.7202  -8.6979  -8.6959  -8.6952  -8.6947
    -8.6033  -8.6015  -8.6009  -8.6004  -8.5811  -8.5791  -8.5787  -8.5781
    -7.8742  -7.8724  -7.8719  -7.8705  -7.8247  -7.8230  -7.8225  -7.8210
    -7.6168  -7.6133  -7.6123  -7.6121  -7.5865  -7.5843  -7.5833  -7.5829
    -7.3153  -7.3140  -7.3140  -7.3128  -7.2604  -7.2591  -7.2590  -7.2574
    -6.4609  -6.4598  -6.4590  -6.4585  -6.2645  -6.2630  -6.2620  -6.2615
    -6.0817  -6.0801  -6.0792  -6.0791  -6.0042  -6.0028  -6.0022  -6.0019
    -5.7064  -5.7055  -5.7049  -5.7045  -5.6744  -5.6729  -5.6723  -5.6714
    -5.6639  -5.6626  -5.6623  -5.6613  -5.5815  -5.5800  -5.5793  -5.5790
    -5.1462  -5.1454  -5.1445  -5.1442  -5.0057  -5.0046  -5.0040  -5.0037
    -4.8357  -4.8354  -4.8350  -4.8340  -4.6944  -4.6937  -4.6935  -4.6927
    -4.6267  -4.6260  -4.6249  -4.6247  -4.5508  -4.5493  -4.5483  -4.5482
    -4.3480  -4.3469  -4.3465  -4.3450  -4.2805  -4.2803  -4.2800  -4.2791
    -4.1816  -4.1808  -4.1802  -4.1797  -4.1074  -4.1062  -4.1059  -4.1040
    -4.0394  -4.0386  -4.0385  -4.0380  -3.9057  -3.9048  -3.9046  -3.9019
    -3.8353  -3.8347  -3.8340  -3.8313  -3.6809  -3.6803  -3.6795  -3.6725
    -3.6337  -3.6327  -3.6321  -3.6259  -3.5383  -3.5372  -3.5357  -3.5320
    -3.3045  -3.3024  -3.3021  -3.3010  -3.0540  -3.0529  -3.0521  -3.0519
    -2.9984  -2.9978  -2.9971  -2.9961  -2.8891  -2.8878  -2.8874  -2.8869
    -2.7813  -2.7806  -2.7800  -2.7798  -2.6349  -2.6334  -2.6332  -2.6324
    -2.3507  -2.3504  -2.3497  -2.3493  -2.2397  -2.2384  -2.2378  -2.2371
    -2.2188  -2.2186  -2.2177  -2.2174  -2.1704  -2.1700  -2.1695  -2.1693
    -2.1123  -2.1116  -2.1104  -2.1103  -1.9428  -1.9410  -1.9407  -1.9398
    -1.7045  -1.7033  -1.7026  -1.7019  -1.6034  -1.6021  -1.6014  -1.6009
    -1.3112  -1.3093  -1.3091  -1.3077  -1.1583  -1.1565  -1.1562  -1.1548
    -0.7150  -0.7133  -0.7129  -0.7118  -0.5322  -0.5311  -0.5308  -0.5295
    -0.3189  -0.3184  -0.3178  -0.3174  -0.2595  -0.2587  -0.2579  -0.2568
    -0.1487  -0.1481  -0.1475  -0.1454  -0.0467  -0.0465  -0.0448  -0.0438
    -0.0029  -0.0025  -0.0019  -0.0007   0.1444   0.1447   0.1452   0.1495
     0.2973   0.2979   0.2989   0.3004   0.3898   0.3902   0.3904   0.3916
     0.5364   0.5383   0.5388   0.5395   0.6593   0.6626   0.6628   0.6640
     1.0171   1.0194   1.0200   1.0206   1.0555   1.0582   1.0588   1.0593
     4.1524   4.1545   4.1547   4.1562   4.1967   4.1989   4.1991   4.2005
     4.7630   4.7654   4.7662   4.7668   4.9651   4.9670   4.9678   4.9681
     5.1701   5.1712   5.1717   5.1726   5.3101   5.3114   5.3123   5.3127
     5.3783   5.3801   5.3810   5.3813   5.4934   5.4955   5.4957   5.4970
     6.4192   6.4258   6.4260   6.4269   6.5213   6.5289   6.5293   6.5294
     6.7176   6.7221   6.7234   6.7237   6.7450   6.7457   6.7460   6.7468
     6.9317   6.9411   6.9420   6.9425   6.9995   7.0027   7.0035   7.0038
     7.2221   7.2238   7.2242   7.2253   7.4660   7.4664   7.4666   7.4684
     7.8185   7.8198   7.8201   7.8206   7.9304   7.9317

     occupation numbers 
     1.0000   1.0000   1.0000   1.0000   1.0000   1.0000   1.0000   1.0000
     1.0000   1.0000   1.0000   1.0000   1.0000   1.0000   1.0000   1.0000
     1.0000   1.0000   1.0000   1.0000   1.0000   1.0000   1.0000   1.0000
     1.0000   1.0000   1.0000   1.0000   1.0000   1.0000   1.0000   1.0000
     1.0000   1.0000   1.0000   1.0000   1.0000   1.0000   1.0000   1.0000
     1.0000   1.0000   1.0000   1.0000   1.0000   1.0000   1.0000   1.0000
     1.0000   1.0000   1.0000   1.0000   1.0000   1.0000   1.0000   1.0000
     1.0000   1.0000   1.0000   1.0000   1.0000   1.0000   1.0000   1.0000
     1.0000   1.0000   1.0000   1.0000   1.0000   1.0000   1.0000   1.0000
     1.0000   1.0000   1.0000   1.0000   1.0000   1.0000   1.0000   1.0000
     1.0000   1.0000   1.0000   1.0000   1.0000   1.0000   1.0000   1.0000
     1.0000   1.0000   1.0000   1.0000   1.0000   1.0000   1.0000   1.0000
     1.0000   1.0000   1.0000   1.0000   1.0000   1.0000   1.0000   1.0000
     1.0000   1.0000   1.0000   1.0000   1.0000   1.0000   1.0000   1.0000
     1.0000   1.0000   1.0000   1.0000   1.0000   1.0000   1.0000   1.0000
     1.0000   1.0000   1.0000   1.0000   1.0000   1.0000   1.0000   1.0000
     1.0000   1.0000   1.0000   1.0000   1.0000   1.0000   1.0000   1.0000
     1.0000   1.0000   1.0000   1.0000   1.0000   1.0000   1.0000   1.0000
     1.0000   1.0000   1.0000   1.0000   1.0000   1.0000   1.0000   1.0000
     1.0000   1.0000   1.0000   1.0000   1.0000   1.0000   1.0000   1.0000
     1.0000   1.0000   1.0000   1.0000   1.0000   1.0000   1.0000   1.0000
     1.0000   1.0000   1.0000   1.0000   1.0000   1.0000   1.0000   1.0000
     1.0000   1.0000   1.0000   1.0000   1.0000   1.0000   1.0000   1.0000
     1.0000   1.0000   1.0000   1.0000   1.0000   1.0000   1.0000   1.0000
     1.0000   1.0000   1.0000   1.0000   1.0000   1.0000   1.0000   1.0000
     1.0000   1.0000   1.0000   1.0000   1.0000   1.0000   1.0000   1.0000
     1.0000   1.0000   1.0000   1.0000   1.0000   1.0000   1.0000   1.0000
     1.0000   1.0000   1.0000   1.0000   1.0000   1.0000   1.0000   1.0000
     1.0000   1.0000   1.0000   1.0000   1.0000   1.0000   1.0000   1.0000
     1.0000   1.0000   1.0000   1.0000   1.0000   1.0000   1.0000   1.0000
     1.0000   1.0000   1.0000   1.0000   1.0000   1.0000   1.0000   1.0000
     1.0000   1.0000   1.0000   1.0000   1.0000   1.0000   1.0000   1.0000
     1.0000   1.0000   1.0000   1.0000   1.0000   1.0000   1.0000   1.0000
     1.0000   1.0000   1.0000   1.0000   1.0000   1.0000   1.0000   1.0000
     1.0000   1.0000   1.0000   1.0000   1.0000   1.0000   1.0000   1.0000
     1.0000   1.0000   1.0000   1.0000   1.0000   1.0000   1.0000   1.0000
     1.0000   1.0000   1.0000   1.0000   1.0000   1.0000   1.0000   1.0000
     1.0000   1.0000   1.0000   1.0000   1.0000   1.0000   1.0000   1.0000
     1.0000   1.0000   1.0000   1.0000   1.0000   1.0000   1.0000   1.0000
     1.0000   1.0000   1.0000   1.0000   1.0000   1.0000   1.0000   1.0000
     1.0000   1.0000   1.0000   1.0000   1.0000   1.0000   1.0000   1.0000
     1.0000   1.0000   1.0000   1.0000   1.0000   1.0000   1.0000   1.0000
     1.0000   1.0000   1.0000   1.0000   1.0000   1.0000   1.0000   1.0000
     1.0000   1.0000   1.0000   1.0000   1.0000   1.0000   1.0000   1.0000
     0.0000   0.0000   0.0000   0.0000   0.0000   0.0000   0.0000   0.0000
     0.0000   0.0000   0.0000   0.0000   0.0000   0.0000   0.0000   0.0000
     0.0000   0.0000   0.0000   0.0000   0.0000   0.0000   0.0000   0.0000
     0.0000   0.0000   0.0000   0.0000   0.0000   0.0000   0.0000   0.0000
     0.0000   0.0000   0.0000   0.0000   0.0000   0.0000   0.0000   0.0000
     0.0000   0.0000   0.0000   0.0000   0.0000   0.0000   0.0000   0.0000
     0.0000   0.0000   0.0000   0.0000   0.0000   0.0000   0.0000   0.0000
     0.0000   0.0000   0.0000   0.0000   0.0000   0.0000   0.0000   0.0000
     0.0000   0.0000   0.0000   0.0000   0.0000   0.0000

          k =-0.5000-0.6750-0.5674 (174204 PWs)   bands (ev):

   -19.9023 -19.9016 -19.9011 -19.8777 -19.8199 -19.8192 -19.8186 -19.7715
   -17.5749 -17.5742 -17.5740 -17.5722 -17.5711 -17.5703 -17.5695 -17.5592
   -16.0292 -16.0283 -16.0276 -16.0271 -15.9531 -15.9524 -15.9519 -15.9501
   -15.1399 -15.1377 -15.1369 -15.1363 -15.1035 -15.1016 -15.1009 -15.1002
   -14.8457 -14.8431 -14.8426 -14.8415 -14.7760 -14.7734 -14.7728 -14.7718
   -13.6318 -13.6299 -13.6293 -13.6282 -13.6033 -13.6016 -13.6010 -13.5997
   -12.5364 -12.5353 -12.5343 -12.5341 -12.4951 -12.4943 -12.4932 -12.4931
   -12.4008 -12.3982 -12.3976 -12.3968 -12.3597 -12.3575 -12.3569 -12.3562
   -11.8937 -11.8912 -11.8905 -11.8899 -11.8485 -11.8461 -11.8454 -11.8447
   -11.2862 -11.2836 -11.2828 -11.2820 -11.2488 -11.2464 -11.2456 -11.2449
    -9.6896  -9.6870  -9.6861  -9.6856  -9.5857  -9.5844  -9.5836  -9.5831
    -9.5514  -9.5495  -9.5487  -9.5486  -9.4578  -9.4557  -9.4547  -9.4546
    -8.7239  -8.7211  -8.7205  -8.7199  -8.6963  -8.6941  -8.6931  -8.6925
    -8.6031  -8.6011  -8.6008  -8.6001  -8.5825  -8.5805  -8.5803  -8.5795
    -7.8761  -7.8743  -7.8738  -7.8724  -7.8223  -7.8206  -7.8201  -7.8187
    -7.6287  -7.6251  -7.6244  -7.6236  -7.5787  -7.5754  -7.5749  -7.5740
    -7.3191  -7.3180  -7.3173  -7.3161  -7.2549  -7.2537  -7.2530  -7.2516
    -6.4552  -6.4537  -6.4528  -6.4525  -6.2703  -6.2686  -6.2675  -6.2674
    -6.0736  -6.0725  -6.0718  -6.0715  -6.0101  -6.0091  -6.0084  -6.0082
    -5.7073  -5.7062  -5.7060  -5.7050  -5.6726  -5.6711  -5.6708  -5.6698
    -5.6646  -5.6630  -5.6628  -5.6616  -5.5847  -5.5840  -5.5833  -5.5831
    -5.1577  -5.1568  -5.1561  -5.1556  -5.0027  -5.0015  -5.0010  -5.0006
    -4.8257  -4.8250  -4.8243  -4.8238  -4.7077  -4.7071  -4.7065  -4.7063
    -4.6078  -4.6074  -4.6067  -4.6061  -4.5402  -4.5392  -4.5384  -4.5380
    -4.3449  -4.3446  -4.3442  -4.3431  -4.2982  -4.2972  -4.2970  -4.2956
    -4.2002  -4.1999  -4.1994  -4.1988  -4.1233  -4.1226  -4.1226  -4.1209
    -4.0051  -4.0046  -4.0039  -4.0033  -3.8945  -3.8939  -3.8938  -3.8932
    -3.8274  -3.8265  -3.8256  -3.8216  -3.6836  -3.6829  -3.6823  -3.6751
    -3.6235  -3.6227  -3.6222  -3.6167  -3.5647  -3.5642  -3.5624  -3.5567
    -3.3158  -3.3139  -3.3133  -3.3123  -3.0315  -3.0302  -3.0298  -3.0294
    -2.9970  -2.9964  -2.9953  -2.9945  -2.9052  -2.9038  -2.9035  -2.9026
    -2.7894  -2.7888  -2.7881  -2.7875  -2.6246  -2.6233  -2.6228  -2.6224
    -2.3480  -2.3476  -2.3469  -2.3467  -2.2497  -2.2486  -2.2481  -2.2473
    -2.1993  -2.1989  -2.1980  -2.1975  -2.1831  -2.1822  -2.1819  -2.1813
    -2.1135  -2.1122  -2.1118  -2.1112  -1.9462  -1.9445  -1.9441  -1.9432
    -1.6990  -1.6976  -1.6972  -1.6964  -1.5977  -1.5964  -1.5960  -1.5951
    -1.3101  -1.3082  -1.3079  -1.3065  -1.1634  -1.1615  -1.1613  -1.1598
    -0.7294  -0.7277  -0.7273  -0.7263  -0.5108  -0.5099  -0.5098  -0.5087
    -0.3190  -0.3187  -0.3180  -0.3164  -0.2717  -0.2708  -0.2702  -0.2699
    -0.1541  -0.1539  -0.1537  -0.1508  -0.0567  -0.0565  -0.0549  -0.0543
     0.0237   0.0240   0.0246   0.0264   0.1397   0.1403   0.1408   0.1452
     0.3018   0.3022   0.3028   0.3040   0.3764   0.3769   0.3776   0.3786
     0.5443   0.5465   0.5469   0.5476   0.6614   0.6645   0.6652   0.6661
     1.0189   1.0210   1.0219   1.0222   1.0504   1.0523   1.0533   1.0536
     4.1462   4.1481   4.1487   4.1497   4.2032   4.2050   4.2057   4.2068
     4.7673   4.7698   4.7704   4.7712   4.9821   4.9844   4.9849   4.9855
     5.1490   5.1506   5.1506   5.1517   5.2995   5.3014   5.3018   5.3026
     5.3735   5.3749   5.3751   5.3759   5.5105   5.5121   5.5126   5.5136
     6.4248   6.4345   6.4349   6.4353   6.5783   6.5822   6.5825   6.5831
     6.6887   6.6915   6.6918   6.6920   6.7519   6.7540   6.7555   6.7564
     6.8499   6.8558   6.8562   6.8563   6.9632   6.9708   6.9716   6.9722
     7.2295   7.2306   7.2315   7.2319   7.5769   7.5774   7.5774   7.5790
     7.7683   7.7705   7.7706   7.7715   7.9416   7.9434

     occupation numbers 
     1.0000   1.0000   1.0000   1.0000   1.0000   1.0000   1.0000   1.0000
     1.0000   1.0000   1.0000   1.0000   1.0000   1.0000   1.0000   1.0000
     1.0000   1.0000   1.0000   1.0000   1.0000   1.0000   1.0000   1.0000
     1.0000   1.0000   1.0000   1.0000   1.0000   1.0000   1.0000   1.0000
     1.0000   1.0000   1.0000   1.0000   1.0000   1.0000   1.0000   1.0000
     1.0000   1.0000   1.0000   1.0000   1.0000   1.0000   1.0000   1.0000
     1.0000   1.0000   1.0000   1.0000   1.0000   1.0000   1.0000   1.0000
     1.0000   1.0000   1.0000   1.0000   1.0000   1.0000   1.0000   1.0000
     1.0000   1.0000   1.0000   1.0000   1.0000   1.0000   1.0000   1.0000
     1.0000   1.0000   1.0000   1.0000   1.0000   1.0000   1.0000   1.0000
     1.0000   1.0000   1.0000   1.0000   1.0000   1.0000   1.0000   1.0000
     1.0000   1.0000   1.0000   1.0000   1.0000   1.0000   1.0000   1.0000
     1.0000   1.0000   1.0000   1.0000   1.0000   1.0000   1.0000   1.0000
     1.0000   1.0000   1.0000   1.0000   1.0000   1.0000   1.0000   1.0000
     1.0000   1.0000   1.0000   1.0000   1.0000   1.0000   1.0000   1.0000
     1.0000   1.0000   1.0000   1.0000   1.0000   1.0000   1.0000   1.0000
     1.0000   1.0000   1.0000   1.0000   1.0000   1.0000   1.0000   1.0000
     1.0000   1.0000   1.0000   1.0000   1.0000   1.0000   1.0000   1.0000
     1.0000   1.0000   1.0000   1.0000   1.0000   1.0000   1.0000   1.0000
     1.0000   1.0000   1.0000   1.0000   1.0000   1.0000   1.0000   1.0000
     1.0000   1.0000   1.0000   1.0000   1.0000   1.0000   1.0000   1.0000
     1.0000   1.0000   1.0000   1.0000   1.0000   1.0000   1.0000   1.0000
     1.0000   1.0000   1.0000   1.0000   1.0000   1.0000   1.0000   1.0000
     1.0000   1.0000   1.0000   1.0000   1.0000   1.0000   1.0000   1.0000
     1.0000   1.0000   1.0000   1.0000   1.0000   1.0000   1.0000   1.0000
     1.0000   1.0000   1.0000   1.0000   1.0000   1.0000   1.0000   1.0000
     1.0000   1.0000   1.0000   1.0000   1.0000   1.0000   1.0000   1.0000
     1.0000   1.0000   1.0000   1.0000   1.0000   1.0000   1.0000   1.0000
     1.0000   1.0000   1.0000   1.0000   1.0000   1.0000   1.0000   1.0000
     1.0000   1.0000   1.0000   1.0000   1.0000   1.0000   1.0000   1.0000
     1.0000   1.0000   1.0000   1.0000   1.0000   1.0000   1.0000   1.0000
     1.0000   1.0000   1.0000   1.0000   1.0000   1.0000   1.0000   1.0000
     1.0000   1.0000   1.0000   1.0000   1.0000   1.0000   1.0000   1.0000
     1.0000   1.0000   1.0000   1.0000   1.0000   1.0000   1.0000   1.0000
     1.0000   1.0000   1.0000   1.0000   1.0000   1.0000   1.0000   1.0000
     1.0000   1.0000   1.0000   1.0000   1.0000   1.0000   1.0000   1.0000
     1.0000   1.0000   1.0000   1.0000   1.0000   1.0000   1.0000   1.0000
     1.0000   1.0000   1.0000   1.0000   1.0000   1.0000   1.0000   1.0000
     1.0000   1.0000   1.0000   1.0000   1.0000   1.0000   1.0000   1.0000
     1.0000   1.0000   1.0000   1.0000   1.0000   1.0000   1.0000   1.0000
     1.0000   1.0000   1.0000   1.0000   1.0000   1.0000   1.0000   1.0000
     1.0000   1.0000   1.0000   1.0000   1.0000   1.0000   1.0000   1.0000
     1.0000   1.0000   1.0000   1.0000   1.0000   1.0000   1.0000   1.0000
     1.0000   1.0000   1.0000   1.0000   1.0000   1.0000   1.0000   1.0000
     0.0000   0.0000   0.0000   0.0000   0.0000   0.0000   0.0000   0.0000
     0.0000   0.0000   0.0000   0.0000   0.0000   0.0000   0.0000   0.0000
     0.0000   0.0000   0.0000   0.0000   0.0000   0.0000   0.0000   0.0000
     0.0000   0.0000   0.0000   0.0000   0.0000   0.0000   0.0000   0.0000
     0.0000   0.0000   0.0000   0.0000   0.0000   0.0000   0.0000   0.0000
     0.0000   0.0000   0.0000   0.0000   0.0000   0.0000   0.0000   0.0000
     0.0000   0.0000   0.0000   0.0000   0.0000   0.0000   0.0000   0.0000
     0.0000   0.0000   0.0000   0.0000   0.0000   0.0000   0.0000   0.0000
     0.0000   0.0000   0.0000   0.0000   0.0000   0.0000

     the Fermi energy is     2.7468 ev

!    total energy              =   -2072.78597045 Ry
     Harris-Foulkes estimate   =   -2072.78597046 Ry
     estimated scf accuracy    <          3.2E-09 Ry

     convergence has been achieved in  14 iterations

     Using ACE for calculation of exact exchange

     EXX grid:  1393933 G-vectors     FFT dimensions: ( 160, 120, 150)
